file 4370575 1473406579                                         
version 2
run attack_0025-0-20160909-09:36:17-3755
attr configname attack_0025
attr datetime 20160909-09:36:17
attr experiment attack_0025
attr inifile omnetpp.ini
attr iterationvars ""
attr iterationvars2 $repetition=0
attr measurement ""
attr network Topo
attr processid 3755
attr repetition 0
attr replication #0
attr resultdir results
attr runnumber 0
attr seedset 0

vector 330  Topo.s1.tcp  tcpRcvQueueBytes  ETV
vector 317  Topo.s1.tcp  "advertised window"  ETV
vector 316  Topo.s1.tcp  "receive window"  ETV
vector 319  Topo.s1.tcp  "sent ack"  ETV
vector 259  Topo.s1.networkLayer.arp  sentReq:vector  ETV
attr title  "ARP request sent, vector"
vector 270  Topo.s1.eth[0].encap  encapPk:vector(packetBytes)  ETV
attr interpolationmode  none
attr source  encapPk
attr title  "packets encapsulated, vector(packetBytes)"
vector 266  Topo.s1.eth[0].mac  rxPkFromHL:vector(packetBytes)  ETV
attr interpolationmode  none
attr source  rxPkFromHL
attr title  "packet bytes from higher layer, vector(packetBytes)"
vector 261  Topo.s1.eth[0].mac  txPk:vector(packetBytes)  ETV
attr interpolationmode  none
attr source  txPk
attr title  "packets transmitted, vector(packetBytes)"
vector 280  Topo.controller.eth[0].mac  rxPkOk:vector(packetBytes)  ETV
attr interpolationmode  none
attr source  rxPkOk
attr title  "packets received OK, vector(packetBytes)"
vector 281  Topo.controller.eth[0].mac  passedUpPk:vector(packetBytes)  ETV
attr interpolationmode  none
attr source  packetSentToUpper
attr title  "packets passed to higher layer, vector(packetBytes)"
vector 289  Topo.controller.eth[0].encap  decapPk:vector(packetBytes)  ETV
attr interpolationmode  none
attr source  decapPk
attr title  "packets decapsulated, vector(packetBytes)"
vector 275  Topo.controller.networkLayer.arp  sentReply:vector  ETV
attr title  "ARP replies sent, vector"
vector 288  Topo.controller.eth[0].encap  encapPk:vector(packetBytes)  ETV
attr interpolationmode  none
attr source  encapPk
attr title  "packets encapsulated, vector(packetBytes)"
vector 284  Topo.controller.eth[0].mac  rxPkFromHL:vector(packetBytes)  ETV
attr interpolationmode  none
attr source  rxPkFromHL
attr title  "packet bytes from higher layer, vector(packetBytes)"
vector 279  Topo.controller.eth[0].mac  txPk:vector(packetBytes)  ETV
attr interpolationmode  none
attr source  txPk
attr title  "packets transmitted, vector(packetBytes)"
vector 262  Topo.s1.eth[0].mac  rxPkOk:vector(packetBytes)  ETV
attr interpolationmode  none
attr source  rxPkOk
attr title  "packets received OK, vector(packetBytes)"
vector 263  Topo.s1.eth[0].mac  passedUpPk:vector(packetBytes)  ETV
attr interpolationmode  none
attr source  packetSentToUpper
attr title  "packets passed to higher layer, vector(packetBytes)"
vector 271  Topo.s1.eth[0].encap  decapPk:vector(packetBytes)  ETV
attr interpolationmode  none
attr source  decapPk
attr title  "packets decapsulated, vector(packetBytes)"
vector 296  Topo.controller.tcp  "rcvd seq"  ETV
vector 297  Topo.controller.tcp  "rcvd ack"  ETV
vector 293  Topo.controller.tcp  "advertised window"  ETV
vector 291  Topo.controller.tcp  "send window"  ETV
vector 306  Topo.controller.tcp  tcpRcvQueueBytes  ETV
vector 292  Topo.controller.tcp  "receive window"  ETV
vector 295  Topo.controller.tcp  "sent ack"  ETV
vector 320  Topo.s1.tcp  "rcvd seq"  ETV
vector 321  Topo.s1.tcp  "rcvd ack"  ETV
vector 315  Topo.s1.tcp  "send window"  ETV
vector 298  Topo.controller.tcp  "unacked bytes"  ETV
vector 294  Topo.controller.tcp  "sent seq"  ETV
vector 323  Topo.s1.tcp  "rcvd dupAcks"  ETV
vector 318  Topo.s1.tcp  "sent seq"  ETV
vector 322  Topo.s1.tcp  "unacked bytes"  ETV
vector 310  Topo.controller.tcp  "measured RTT"  ETV
vector 311  Topo.controller.tcp  "smoothed RTT"  ETV
vector 312  Topo.controller.tcp  RTTVAR  ETV
vector 313  Topo.controller.tcp  RTO  ETV
vector 308  Topo.controller.tcp  cwnd  ETV
vector 299  Topo.controller.tcp  "rcvd dupAcks"  ETV
vector 334  Topo.s1.tcp  "measured RTT"  ETV
vector 335  Topo.s1.tcp  "smoothed RTT"  ETV
vector 336  Topo.s1.tcp  RTTVAR  ETV
vector 337  Topo.s1.tcp  RTO  ETV
vector 332  Topo.s1.tcp  cwnd  ETV
vector 1  Topo.client1.udpApp[0]  sentPk:vector(packetBytes)  ETV
attr interpolationmode  none
attr source  sentPk
attr title  "packets sent, vector(packetBytes)"
vector 3  Topo.client1.udp  sentPk:vector(packetBytes)  ETV
attr interpolationmode  none
attr source  sentPk
attr title  "packets sent, vector(packetBytes)"
vector 4  Topo.client1.udp  sentPk:vector(count)  ETV
attr interpolationmode  none
attr source  sentPk
attr title  "packets sent, vector(count)"
vector 9  Topo.client1.networkLayer.arp  sentReq:vector  ETV
attr title  "ARP request sent, vector"
vector 23  Topo.client1.eth[0].encap  encapPk:vector(packetBytes)  ETV
attr interpolationmode  none
attr source  encapPk
attr title  "packets encapsulated, vector(packetBytes)"
vector 19  Topo.client1.eth[0].mac  rxPkFromHL:vector(packetBytes)  ETV
attr interpolationmode  none
attr source  rxPkFromHL
attr title  "packet bytes from higher layer, vector(packetBytes)"
vector 14  Topo.client1.eth[0].mac  txPk:vector(packetBytes)  ETV
attr interpolationmode  none
attr source  txPk
attr title  "packets transmitted, vector(packetBytes)"
vector 183  Topo.s1.etherMAC[0]  rxPkOk:vector(packetBytes)  ETV
attr interpolationmode  none
attr source  rxPkOk
attr title  "packets received OK, vector(packetBytes)"
vector 184  Topo.s1.etherMAC[0]  passedUpPk:vector(packetBytes)  ETV
attr interpolationmode  none
attr source  packetSentToUpper
attr title  "packets passed to higher layer, vector(packetBytes)"
vector 198  Topo.s1.etherMAC[1]  rxPkFromHL:vector(packetBytes)  ETV
attr interpolationmode  none
attr source  rxPkFromHL
attr title  "packet bytes from higher layer, vector(packetBytes)"
vector 209  Topo.s1.etherMAC[2]  rxPkFromHL:vector(packetBytes)  ETV
attr interpolationmode  none
attr source  rxPkFromHL
attr title  "packet bytes from higher layer, vector(packetBytes)"
vector 220  Topo.s1.etherMAC[3]  rxPkFromHL:vector(packetBytes)  ETV
attr interpolationmode  none
attr source  rxPkFromHL
attr title  "packet bytes from higher layer, vector(packetBytes)"
vector 231  Topo.s1.etherMAC[4]  rxPkFromHL:vector(packetBytes)  ETV
attr interpolationmode  none
attr source  rxPkFromHL
attr title  "packet bytes from higher layer, vector(packetBytes)"
vector 242  Topo.s1.etherMAC[5]  rxPkFromHL:vector(packetBytes)  ETV
attr interpolationmode  none
attr source  rxPkFromHL
attr title  "packet bytes from higher layer, vector(packetBytes)"
vector 253  Topo.s1.etherMAC[6]  rxPkFromHL:vector(packetBytes)  ETV
attr interpolationmode  none
attr source  rxPkFromHL
attr title  "packet bytes from higher layer, vector(packetBytes)"
vector 193  Topo.s1.etherMAC[1]  txPk:vector(packetBytes)  ETV
attr interpolationmode  none
attr source  txPk
attr title  "packets transmitted, vector(packetBytes)"
vector 204  Topo.s1.etherMAC[2]  txPk:vector(packetBytes)  ETV
attr interpolationmode  none
attr source  txPk
attr title  "packets transmitted, vector(packetBytes)"
vector 215  Topo.s1.etherMAC[3]  txPk:vector(packetBytes)  ETV
attr interpolationmode  none
attr source  txPk
attr title  "packets transmitted, vector(packetBytes)"
vector 226  Topo.s1.etherMAC[4]  txPk:vector(packetBytes)  ETV
attr interpolationmode  none
attr source  txPk
attr title  "packets transmitted, vector(packetBytes)"
vector 237  Topo.s1.etherMAC[5]  txPk:vector(packetBytes)  ETV
attr interpolationmode  none
attr source  txPk
attr title  "packets transmitted, vector(packetBytes)"
vector 248  Topo.s1.etherMAC[6]  txPk:vector(packetBytes)  ETV
attr interpolationmode  none
attr source  txPk
attr title  "packets transmitted, vector(packetBytes)"
vector 41  Topo.client2.eth[0].mac  rxPkOk:vector(packetBytes)  ETV
attr interpolationmode  none
attr source  rxPkOk
attr title  "packets received OK, vector(packetBytes)"
vector 42  Topo.client2.eth[0].mac  passedUpPk:vector(packetBytes)  ETV
attr interpolationmode  none
attr source  packetSentToUpper
attr title  "packets passed to higher layer, vector(packetBytes)"
vector 67  Topo.client3.eth[0].mac  rxPkOk:vector(packetBytes)  ETV
attr interpolationmode  none
attr source  rxPkOk
attr title  "packets received OK, vector(packetBytes)"
vector 68  Topo.client3.eth[0].mac  passedUpPk:vector(packetBytes)  ETV
attr interpolationmode  none
attr source  packetSentToUpper
attr title  "packets passed to higher layer, vector(packetBytes)"
vector 93  Topo.client4.eth[0].mac  rxPkOk:vector(packetBytes)  ETV
attr interpolationmode  none
attr source  rxPkOk
attr title  "packets received OK, vector(packetBytes)"
vector 94  Topo.client4.eth[0].mac  passedUpPk:vector(packetBytes)  ETV
attr interpolationmode  none
attr source  packetSentToUpper
attr title  "packets passed to higher layer, vector(packetBytes)"
vector 119  Topo.server1.eth[0].mac  rxPkOk:vector(packetBytes)  ETV
attr interpolationmode  none
attr source  rxPkOk
attr title  "packets received OK, vector(packetBytes)"
vector 120  Topo.server1.eth[0].mac  passedUpPk:vector(packetBytes)  ETV
attr interpolationmode  none
attr source  packetSentToUpper
attr title  "packets passed to higher layer, vector(packetBytes)"
vector 145  Topo.server2.eth[0].mac  rxPkOk:vector(packetBytes)  ETV
attr interpolationmode  none
attr source  rxPkOk
attr title  "packets received OK, vector(packetBytes)"
vector 146  Topo.server2.eth[0].mac  passedUpPk:vector(packetBytes)  ETV
attr interpolationmode  none
attr source  packetSentToUpper
attr title  "packets passed to higher layer, vector(packetBytes)"
vector 171  Topo.server3.eth[0].mac  rxPkOk:vector(packetBytes)  ETV
attr interpolationmode  none
attr source  rxPkOk
attr title  "packets received OK, vector(packetBytes)"
vector 172  Topo.server3.eth[0].mac  passedUpPk:vector(packetBytes)  ETV
attr interpolationmode  none
attr source  packetSentToUpper
attr title  "packets passed to higher layer, vector(packetBytes)"
vector 50  Topo.client2.eth[0].encap  decapPk:vector(packetBytes)  ETV
attr interpolationmode  none
attr source  decapPk
attr title  "packets decapsulated, vector(packetBytes)"
vector 76  Topo.client3.eth[0].encap  decapPk:vector(packetBytes)  ETV
attr interpolationmode  none
attr source  decapPk
attr title  "packets decapsulated, vector(packetBytes)"
vector 102  Topo.client4.eth[0].encap  decapPk:vector(packetBytes)  ETV
attr interpolationmode  none
attr source  decapPk
attr title  "packets decapsulated, vector(packetBytes)"
vector 128  Topo.server1.eth[0].encap  decapPk:vector(packetBytes)  ETV
attr interpolationmode  none
attr source  decapPk
attr title  "packets decapsulated, vector(packetBytes)"
vector 154  Topo.server2.eth[0].encap  decapPk:vector(packetBytes)  ETV
attr interpolationmode  none
attr source  decapPk
attr title  "packets decapsulated, vector(packetBytes)"
vector 180  Topo.server3.eth[0].encap  decapPk:vector(packetBytes)  ETV
attr interpolationmode  none
attr source  decapPk
attr title  "packets decapsulated, vector(packetBytes)"
vector 114  Topo.server1.networkLayer.arp  sentReply:vector  ETV
attr title  "ARP replies sent, vector"
vector 127  Topo.server1.eth[0].encap  encapPk:vector(packetBytes)  ETV
attr interpolationmode  none
attr source  encapPk
attr title  "packets encapsulated, vector(packetBytes)"
vector 123  Topo.server1.eth[0].mac  rxPkFromHL:vector(packetBytes)  ETV
attr interpolationmode  none
attr source  rxPkFromHL
attr title  "packet bytes from higher layer, vector(packetBytes)"
vector 118  Topo.server1.eth[0].mac  txPk:vector(packetBytes)  ETV
attr interpolationmode  none
attr source  txPk
attr title  "packets transmitted, vector(packetBytes)"
vector 227  Topo.s1.etherMAC[4]  rxPkOk:vector(packetBytes)  ETV
attr interpolationmode  none
attr source  rxPkOk
attr title  "packets received OK, vector(packetBytes)"
vector 228  Topo.s1.etherMAC[4]  passedUpPk:vector(packetBytes)  ETV
attr interpolationmode  none
attr source  packetSentToUpper
attr title  "packets passed to higher layer, vector(packetBytes)"
vector 187  Topo.s1.etherMAC[0]  rxPkFromHL:vector(packetBytes)  ETV
attr interpolationmode  none
attr source  rxPkFromHL
attr title  "packet bytes from higher layer, vector(packetBytes)"
vector 182  Topo.s1.etherMAC[0]  txPk:vector(packetBytes)  ETV
attr interpolationmode  none
attr source  txPk
attr title  "packets transmitted, vector(packetBytes)"
vector 15  Topo.client1.eth[0].mac  rxPkOk:vector(packetBytes)  ETV
attr interpolationmode  none
attr source  rxPkOk
attr title  "packets received OK, vector(packetBytes)"
vector 16  Topo.client1.eth[0].mac  passedUpPk:vector(packetBytes)  ETV
attr interpolationmode  none
attr source  packetSentToUpper
attr title  "packets passed to higher layer, vector(packetBytes)"
vector 24  Topo.client1.eth[0].encap  decapPk:vector(packetBytes)  ETV
attr interpolationmode  none
attr source  decapPk
attr title  "packets decapsulated, vector(packetBytes)"
vector 109  Topo.server1.udp  rcvdPk:vector(packetBytes)  ETV
attr interpolationmode  none
attr source  rcvdPk
attr title  "packets received, vector(packetBytes)"
vector 110  Topo.server1.udp  passedUpPk:vector(count)  ETV
attr interpolationmode  none
attr title  "packets passed up, vector(count)"
vector 104  Topo.server1.udpApp[0]  rcvdPk:vector(packetBytes)  ETV
attr interpolationmode  none
attr source  rcvdPk
attr title  "packets received, vector(packetBytes)"
vector 105  Topo.server1.udpApp[0]  rcvdPk:vector(count)  ETV
attr interpolationmode  none
attr source  rcvdPk
attr title  "packets received, vector(count)"
vector 27  Topo.client2.udpApp[0]  sentPk:vector(packetBytes)  ETV
attr interpolationmode  none
attr source  sentPk
attr title  "packets sent, vector(packetBytes)"
vector 79  Topo.client4.udpApp[0]  sentPk:vector(packetBytes)  ETV
attr interpolationmode  none
attr source  sentPk
attr title  "packets sent, vector(packetBytes)"
vector 29  Topo.client2.udp  sentPk:vector(packetBytes)  ETV
attr interpolationmode  none
attr source  sentPk
attr title  "packets sent, vector(packetBytes)"
vector 30  Topo.client2.udp  sentPk:vector(count)  ETV
attr interpolationmode  none
attr source  sentPk
attr title  "packets sent, vector(count)"
vector 81  Topo.client4.udp  sentPk:vector(packetBytes)  ETV
attr interpolationmode  none
attr source  sentPk
attr title  "packets sent, vector(packetBytes)"
vector 82  Topo.client4.udp  sentPk:vector(count)  ETV
attr interpolationmode  none
attr source  sentPk
attr title  "packets sent, vector(count)"
vector 35  Topo.client2.networkLayer.arp  sentReq:vector  ETV
attr title  "ARP request sent, vector"
vector 87  Topo.client4.networkLayer.arp  sentReq:vector  ETV
attr title  "ARP request sent, vector"
vector 49  Topo.client2.eth[0].encap  encapPk:vector(packetBytes)  ETV
attr interpolationmode  none
attr source  encapPk
attr title  "packets encapsulated, vector(packetBytes)"
vector 101  Topo.client4.eth[0].encap  encapPk:vector(packetBytes)  ETV
attr interpolationmode  none
attr source  encapPk
attr title  "packets encapsulated, vector(packetBytes)"
vector 45  Topo.client2.eth[0].mac  rxPkFromHL:vector(packetBytes)  ETV
attr interpolationmode  none
attr source  rxPkFromHL
attr title  "packet bytes from higher layer, vector(packetBytes)"
vector 97  Topo.client4.eth[0].mac  rxPkFromHL:vector(packetBytes)  ETV
attr interpolationmode  none
attr source  rxPkFromHL
attr title  "packet bytes from higher layer, vector(packetBytes)"
vector 40  Topo.client2.eth[0].mac  txPk:vector(packetBytes)  ETV
attr interpolationmode  none
attr source  txPk
attr title  "packets transmitted, vector(packetBytes)"
vector 92  Topo.client4.eth[0].mac  txPk:vector(packetBytes)  ETV
attr interpolationmode  none
attr source  txPk
attr title  "packets transmitted, vector(packetBytes)"
vector 194  Topo.s1.etherMAC[1]  rxPkOk:vector(packetBytes)  ETV
attr interpolationmode  none
attr source  rxPkOk
attr title  "packets received OK, vector(packetBytes)"
vector 195  Topo.s1.etherMAC[1]  passedUpPk:vector(packetBytes)  ETV
attr interpolationmode  none
attr source  packetSentToUpper
attr title  "packets passed to higher layer, vector(packetBytes)"
vector 216  Topo.s1.etherMAC[3]  rxPkOk:vector(packetBytes)  ETV
attr interpolationmode  none
attr source  rxPkOk
attr title  "packets received OK, vector(packetBytes)"
vector 217  Topo.s1.etherMAC[3]  passedUpPk:vector(packetBytes)  ETV
attr interpolationmode  none
attr source  packetSentToUpper
attr title  "packets passed to higher layer, vector(packetBytes)"
vector 140  Topo.server2.networkLayer.arp  sentReply:vector  ETV
attr title  "ARP replies sent, vector"
vector 153  Topo.server2.eth[0].encap  encapPk:vector(packetBytes)  ETV
attr interpolationmode  none
attr source  encapPk
attr title  "packets encapsulated, vector(packetBytes)"
vector 149  Topo.server2.eth[0].mac  rxPkFromHL:vector(packetBytes)  ETV
attr interpolationmode  none
attr source  rxPkFromHL
attr title  "packet bytes from higher layer, vector(packetBytes)"
vector 144  Topo.server2.eth[0].mac  txPk:vector(packetBytes)  ETV
attr interpolationmode  none
attr source  txPk
attr title  "packets transmitted, vector(packetBytes)"
vector 238  Topo.s1.etherMAC[5]  rxPkOk:vector(packetBytes)  ETV
attr interpolationmode  none
attr source  rxPkOk
attr title  "packets received OK, vector(packetBytes)"
vector 239  Topo.s1.etherMAC[5]  passedUpPk:vector(packetBytes)  ETV
attr interpolationmode  none
attr source  packetSentToUpper
attr title  "packets passed to higher layer, vector(packetBytes)"
vector 166  Topo.server3.networkLayer.arp  sentReply:vector  ETV
attr title  "ARP replies sent, vector"
vector 179  Topo.server3.eth[0].encap  encapPk:vector(packetBytes)  ETV
attr interpolationmode  none
attr source  encapPk
attr title  "packets encapsulated, vector(packetBytes)"
vector 175  Topo.server3.eth[0].mac  rxPkFromHL:vector(packetBytes)  ETV
attr interpolationmode  none
attr source  rxPkFromHL
attr title  "packet bytes from higher layer, vector(packetBytes)"
vector 170  Topo.server3.eth[0].mac  txPk:vector(packetBytes)  ETV
attr interpolationmode  none
attr source  txPk
attr title  "packets transmitted, vector(packetBytes)"
vector 249  Topo.s1.etherMAC[6]  rxPkOk:vector(packetBytes)  ETV
attr interpolationmode  none
attr source  rxPkOk
attr title  "packets received OK, vector(packetBytes)"
vector 250  Topo.s1.etherMAC[6]  passedUpPk:vector(packetBytes)  ETV
attr interpolationmode  none
attr source  packetSentToUpper
attr title  "packets passed to higher layer, vector(packetBytes)"
vector 135  Topo.server2.udp  rcvdPk:vector(packetBytes)  ETV
attr interpolationmode  none
attr source  rcvdPk
attr title  "packets received, vector(packetBytes)"
vector 136  Topo.server2.udp  passedUpPk:vector(count)  ETV
attr interpolationmode  none
attr title  "packets passed up, vector(count)"
vector 130  Topo.server2.udpApp[0]  rcvdPk:vector(packetBytes)  ETV
attr interpolationmode  none
attr source  rcvdPk
attr title  "packets received, vector(packetBytes)"
vector 131  Topo.server2.udpApp[0]  rcvdPk:vector(count)  ETV
attr interpolationmode  none
attr source  rcvdPk
attr title  "packets received, vector(count)"
vector 161  Topo.server3.udp  rcvdPk:vector(packetBytes)  ETV
attr interpolationmode  none
attr source  rcvdPk
attr title  "packets received, vector(packetBytes)"
vector 162  Topo.server3.udp  passedUpPk:vector(count)  ETV
attr interpolationmode  none
attr title  "packets passed up, vector(count)"
vector 156  Topo.server3.udpApp[0]  rcvdPk:vector(packetBytes)  ETV
attr interpolationmode  none
attr source  rcvdPk
attr title  "packets received, vector(packetBytes)"
vector 157  Topo.server3.udpApp[0]  rcvdPk:vector(count)  ETV
attr interpolationmode  none
attr source  rcvdPk
attr title  "packets received, vector(count)"
vector 53  Topo.client3.udpApp[0]  sentPk:vector(packetBytes)  ETV
attr interpolationmode  none
attr source  sentPk
attr title  "packets sent, vector(packetBytes)"
vector 55  Topo.client3.udp  sentPk:vector(packetBytes)  ETV
attr interpolationmode  none
attr source  sentPk
attr title  "packets sent, vector(packetBytes)"
vector 56  Topo.client3.udp  sentPk:vector(count)  ETV
attr interpolationmode  none
attr source  sentPk
attr title  "packets sent, vector(count)"
vector 61  Topo.client3.networkLayer.arp  sentReq:vector  ETV
attr title  "ARP request sent, vector"
vector 75  Topo.client3.eth[0].encap  encapPk:vector(packetBytes)  ETV
attr interpolationmode  none
attr source  encapPk
attr title  "packets encapsulated, vector(packetBytes)"
vector 71  Topo.client3.eth[0].mac  rxPkFromHL:vector(packetBytes)  ETV
attr interpolationmode  none
attr source  rxPkFromHL
attr title  "packet bytes from higher layer, vector(packetBytes)"
vector 66  Topo.client3.eth[0].mac  txPk:vector(packetBytes)  ETV
attr interpolationmode  none
attr source  txPk
attr title  "packets transmitted, vector(packetBytes)"
vector 205  Topo.s1.etherMAC[2]  rxPkOk:vector(packetBytes)  ETV
attr interpolationmode  none
attr source  rxPkOk
attr title  "packets received OK, vector(packetBytes)"
vector 206  Topo.s1.etherMAC[2]  passedUpPk:vector(packetBytes)  ETV
attr interpolationmode  none
attr source  packetSentToUpper
attr title  "packets passed to higher layer, vector(packetBytes)"
vector 132  Topo.server2.udpApp[0]  rcvdAppPkt:vector  ETV
attr interpolationmode  none
attr source  rcvdAppPkt
attr title  "packets received during sec, vector"
vector 158  Topo.server3.udpApp[0]  rcvdAppPkt:vector  ETV
attr interpolationmode  none
attr source  rcvdAppPkt
attr title  "packets received during sec, vector"
vector 106  Topo.server1.udpApp[0]  rcvdAppPkt:vector  ETV
attr interpolationmode  none
attr source  rcvdAppPkt
attr title  "packets received during sec, vector"
vector 273  Topo.controller.entropy  entropy:vector  ETV
attr source  entropy
attr title  "Entropy Value, vector"
vector 274  Topo.controller.networkLayer.arp  sentReq:vector  ETV
attr title  "ARP request sent, vector"
vector 260  Topo.s1.networkLayer.arp  sentReply:vector  ETV
attr title  "ARP replies sent, vector"
1	22023 47096 181 262391 0.1 249.9 2499 1250 1250 3123750 3904687500
3	69119 47096 185 262395 0.1 249.9 2499 1258 1258 3143742 3954827436
4	116215 45989 185 262395 0.1 249.9 2499 1 2499 3123750 5205208750
9	162204 46 187 250199 0.1 240.3 3 1 1 3 3
14	162250 67673 193 262416 0.10000576 249.90010432 2502 64 1296 3238896 4197372672
15	229923 341 407 251446 0.100099919998 240.900043199999 12 64 64 768 49152
16	230264 341 407 251446 0.100099919998 240.900043199999 12 64 64 768 49152
19	230605 49680 191 262405 0.1 249.9 2502 64 1296 3238896 4197372672
23	280285 49680 190 262403 0.1 249.9 2502 28 1278 3193806 4081579068
24	329965 341 409 251453 0.100099919998 240.900043199999 12 28 28 336 9408
27	330306 24558 634 262502 0.2 250 1250 1250 1250 1562500 1953125000
29	354864 207817 643 262496 0.2 249.999999999867 7650 8 1258 1622450 1977032100
30	562681 225913 643 262496 0.2 249.999999999867 7650 1 7650 29265075 149261637525
35	788594 71 650 249904 0.2 240.249999999867 3 1 1 3 3
40	788665 226610 667 262488 0.20000576 249.975005759867 7652 64 1296 2028496 2124067072
41	1015275 342 272 251447 0.100043199999 240.900043199999 12 64 64 768 49152
42	1015617 342 272 251447 0.100043199999 240.900043199999 12 64 64 768 49152
45	1015959 214305 662 262501 0.2 249.999999999867 7653 64 1296 2028560 2124071168
49	1230264 214305 659 262500 0.2 249.999999999867 7653 28 1278 1775534 2044992452
50	1444569 342 279 251454 0.100043199999 240.900043199999 12 28 28 336 9408
53	1444911 16533 1488 262390 0.3 249.9 833 1250 1250 1041250 1301562500
55	1461444 16533 1494 262394 0.3 249.9 833 1258 1258 1047914 1318275812
56	1477977 15592 1494 262394 0.3 249.9 833 1 833 347361 193016929
61	1493569 50 1498 251349 0.3 240.9 3 1 1 3 3
66	1493619 22616 1509 262415 0.30000576 249.90010432 836 64 1296 1079760 1399132416
67	1516235 341 273 251581 0.100043199999 240.900099919998 12 64 64 768 49152
68	1516576 341 273 251581 0.100043199999 240.900099919998 12 64 64 768 49152
71	1516917 16619 1506 262404 0.3 249.9 836 64 1296 1079760 1399132416
75	1533536 16619 1504 262402 0.3 249.9 836 28 1278 1064658 1360527924
76	1550155 341 280 251583 0.100043199999 240.900099919998 12 28 28 336 9408
79	1550496 24539 635 262264 0.2 249.8 1249 1250 1250 1561250 1951562500
81	1575035 24539 645 262270 0.2 249.8 1249 1258 1258 1571242 1976622436
82	1599574 23432 645 262270 0.2 249.8 1249 1 1249 780625 650260625
87	1623006 49 651 250763 0.2 240.6 3 1 1 3 3
92	1623055 33867 668 262297 0.20000576 249.80010432 1252 64 1296 1618896 2097852672
93	1656922 342 274 251448 0.100043199999 240.900043199999 12 64 64 768 49152
94	1657264 342 274 251448 0.100043199999 240.900043199999 12 64 64 768 49152
97	1657606 24625 663 262285 0.2 249.8 1252 64 1296 1618896 2097852672
101	1682231 25877 660 262282 0.2 249.8 1252 28 1278 1596306 2039974068
102	1708108 354 281 251455 0.100043199999 240.900043199999 12 28 28 336 9408
104	1708462 70099 633 262448 0.100569039992 249.90021064 2499 1250 1250 3123750 3904687500
105	1778561 68992 633 262448 0.100569039992 249.90021064 2499 1 2499 3123750 5205208750
106	1847553 6487 2408 261432 1.00021064 249.00021064 249 10 10 2490 24900
109	1854040 70099 631 262444 0.100569039992 249.90021064 2499 1258 1258 3143742 3954827436
110	1924139 68992 631 262444 0.100569039992 249.90021064 2499 1 2499 3123750 5205208750
114	1993131 85 303 250326 0.100043199999 240.300043199999 3 1 1 3 3
118	1993216 88 313 250336 0.100048959999 240.300048959999 3 64 64 192 12288
119	1993304 70452 275 262434 0.100043199999 249.90021064 2511 64 1296 3239472 4197409536
120	2063756 70452 275 262434 0.100043199999 249.90021064 2511 64 1296 3239472 4197409536
123	2134208 88 311 250334 0.100043199999 240.300043199999 3 64 64 192 12288
127	2134296 88 310 250333 0.100043199999 240.300043199999 3 28 28 84 2352
128	2134384 70452 282 262436 0.100043199999 249.90021064 2511 28 1278 3194058 4081586124
130	2204836 75414 1432 262447 0.200555599992 249.90021064 2633 0 1250 1790000 2237500000
131	2280250 77910 1432 262447 0.200555599992 249.90021064 2633 1 2633 3467661 6088056829
132	2358160 6396 2406 261430 1.00021064 249.00021064 249 3 49 2630 77814
135	2364556 75414 1430 262443 0.200555599992 249.90021064 2633 8 1258 1811064 2266308512
136	2439970 77910 1430 262443 0.200555599992 249.90021064 2633 1 2633 3467661 6088056829
140	2517880 171 811 251478 0.200043199999 240.900043199999 6 1 1 6 6
144	2518051 177 831 251487 0.200048959999 240.900048959999 6 64 64 384 24576
145	2518228 76968 276 262433 0.100043199999 249.90021064 2645 64 1296 1933504 2410178560
146	2595196 76968 276 262433 0.100043199999 249.90021064 2645 64 1296 1933504 2410178560
149	2672164 177 820 251485 0.200043199999 240.900043199999 6 64 64 384 24576
153	2672341 177 818 251484 0.200043199999 240.900043199999 6 28 28 168 4704
154	2672518 76968 283 262435 0.100043199999 249.90021064 2645 28 1278 1864060 2339813680
156	2749486 35075 1487 262335 0.200698319986 249.80021064 1249 1250 1250 1561250 1951562500
157	2784561 33968 1487 262335 0.200698319986 249.80021064 1249 1 1249 780625 650260625
158	2818529 6242 2407 261431 1.00021064 249.00021064 249 5 5 1245 6225
161	2824771 35075 1485 262331 0.200698319986 249.80021064 1249 1258 1258 1571242 1976622436
162	2859846 33968 1485 262331 0.200698319986 249.80021064 1249 1 1249 780625 650260625
166	2893814 85 913 250901 0.200061439999 240.600043199999 3 1 1 3 3
170	2893899 88 933 250909 0.200067199999 240.600048959999 3 64 64 192 12288
171	2893987 35428 277 262321 0.100043199999 249.80021064 1261 64 1296 1619472 2097889536
172	2929415 35428 277 262321 0.100043199999 249.80021064 1261 64 1296 1619472 2097889536
175	2964843 88 924 250907 0.200061439999 240.600043199999 3 64 64 192 12288
179	2964931 88 921 250906 0.200061439999 240.600043199999 3 28 28 84 2352
180	2965019 35428 284 262323 0.100043199999 249.80021064 1261 28 1278 1596558 2039981124
182	3000447 353 403 251432 0.100098919998 240.900042199999 12 64 64 768 49152
183	3000800 70175 195 262420 0.10000676 249.90010532 2502 64 1296 3238896 4197372672
184	3070975 70175 195 262420 0.10000676 249.90010532 2502 64 1296 3238896 4197372672
187	3141150 353 399 251423 0.100093159998 240.900036439999 12 64 64 768 49152
193	3141503 354 258 251433 0.100042199999 240.900042199999 12 64 64 768 49152
194	3141857 234262 671 262490 0.20000676 249.975006759867 7652 64 1296 2028496 2124067072
195	3376119 234262 671 262490 0.20000676 249.975006759867 7652 64 1296 2028496 2124067072
198	3610381 354 249 251424 0.100036439999 240.900036439999 12 64 64 768 49152
204	3610735 353 259 251577 0.100042199999 240.900098919998 12 64 64 768 49152
205	3611088 23452 1511 262419 0.30000676 249.90010532 836 64 1296 1079760 1399132416
206	3634540 23452 1511 262419 0.30000676 249.90010532 836 64 1296 1079760 1399132416
209	3657992 353 250 251573 0.100036439999 240.900093159998 12 64 64 768 49152
215	3658345 354 260 251434 0.100042199999 240.900042199999 12 64 64 768 49152
216	3658699 35119 672 262301 0.20000676 249.80010532 1252 64 1296 1618896 2097852672
217	3693818 35119 672 262301 0.20000676 249.80010532 1252 64 1296 1618896 2097852672
220	3728937 354 251 251425 0.100036439999 240.900036439999 12 64 64 768 49152
226	3729291 70452 261 262430 0.100042199999 249.90020964 2511 64 1296 3239472 4197409536
227	3799743 88 315 250338 0.100049959999 240.300049959999 3 64 64 192 12288
228	3799831 88 315 250338 0.100049959999 240.300049959999 3 64 64 192 12288
231	3799919 70452 252 262426 0.100036439999 249.90010532 2511 64 1296 3239472 4197409536
237	3870371 76968 262 262429 0.100042199999 249.90020964 2645 64 1296 1933504 2410178560
238	3947339 177 833 251489 0.200049959999 240.900049959999 6 64 64 384 24576
239	3947516 177 833 251489 0.200049959999 240.900049959999 6 64 64 384 24576
242	3947693 76380 253 262424 0.100036439999 249.90010532 2645 64 1296 1933504 2410178560