version 2
run destroy-0-20161003-12:07:18-5241
attr configname destroy
attr datetime 20161003-12:07:18
attr experiment destroy
attr inifile omnetpp.ini
attr iterationvars ""
attr iterationvars2 $repetition=0
attr measurement ""
attr network Topo
attr processid 5241
attr repetition 0
attr replication #0
attr resultdir results
attr runnumber 0
attr seedset 0

vector 330  Topo.s1.tcp  tcpRcvQueueBytes  ETV
vector 317  Topo.s1.tcp  "advertised window"  ETV
vector 316  Topo.s1.tcp  "receive window"  ETV
vector 319  Topo.s1.tcp  "sent ack"  ETV
vector 259  Topo.s1.networkLayer.arp  sentReq:vector  ETV
attr title  "ARP request sent, vector"
vector 270  Topo.s1.eth[0].encap  encapPk:vector(packetBytes)  ETV
attr interpolationmode  none
attr source  encapPk
attr title  "packets encapsulated, vector(packetBytes)"
vector 266  Topo.s1.eth[0].mac  rxPkFromHL:vector(packetBytes)  ETV
attr interpolationmode  none
attr source  rxPkFromHL
attr title  "packet bytes from higher layer, vector(packetBytes)"
vector 261  Topo.s1.eth[0].mac  txPk:vector(packetBytes)  ETV
attr interpolationmode  none
attr source  txPk
attr title  "packets transmitted, vector(packetBytes)"
vector 280  Topo.controller.eth[0].mac  rxPkOk:vector(packetBytes)  ETV
attr interpolationmode  none
attr source  rxPkOk
attr title  "packets received OK, vector(packetBytes)"
vector 281  Topo.controller.eth[0].mac  passedUpPk:vector(packetBytes)  ETV
attr interpolationmode  none
attr source  packetSentToUpper
attr title  "packets passed to higher layer, vector(packetBytes)"
vector 289  Topo.controller.eth[0].encap  decapPk:vector(packetBytes)  ETV
attr interpolationmode  none
attr source  decapPk
attr title  "packets decapsulated, vector(packetBytes)"
vector 275  Topo.controller.networkLayer.arp  sentReply:vector  ETV
attr title  "ARP replies sent, vector"
vector 288  Topo.controller.eth[0].encap  encapPk:vector(packetBytes)  ETV
attr interpolationmode  none
attr source  encapPk
attr title  "packets encapsulated, vector(packetBytes)"
vector 284  Topo.controller.eth[0].mac  rxPkFromHL:vector(packetBytes)  ETV
attr interpolationmode  none
attr source  rxPkFromHL
attr title  "packet bytes from higher layer, vector(packetBytes)"
vector 279  Topo.controller.eth[0].mac  txPk:vector(packetBytes)  ETV
attr interpolationmode  none
attr source  txPk
attr title  "packets transmitted, vector(packetBytes)"
vector 262  Topo.s1.eth[0].mac  rxPkOk:vector(packetBytes)  ETV
attr interpolationmode  none
attr source  rxPkOk
attr title  "packets received OK, vector(packetBytes)"
vector 263  Topo.s1.eth[0].mac  passedUpPk:vector(packetBytes)  ETV
attr interpolationmode  none
attr source  packetSentToUpper
attr title  "packets passed to higher layer, vector(packetBytes)"
vector 271  Topo.s1.eth[0].encap  decapPk:vector(packetBytes)  ETV
attr interpolationmode  none
attr source  decapPk
attr title  "packets decapsulated, vector(packetBytes)"
vector 296  Topo.controller.tcp  "rcvd seq"  ETV
vector 297  Topo.controller.tcp  "rcvd ack"  ETV
vector 293  Topo.controller.tcp  "advertised window"  ETV
vector 291  Topo.controller.tcp  "send window"  ETV
vector 306  Topo.controller.tcp  tcpRcvQueueBytes  ETV
vector 292  Topo.controller.tcp  "receive window"  ETV
vector 295  Topo.controller.tcp  "sent ack"  ETV
vector 320  Topo.s1.tcp  "rcvd seq"  ETV
vector 321  Topo.s1.tcp  "rcvd ack"  ETV
vector 315  Topo.s1.tcp  "send window"  ETV
vector 298  Topo.controller.tcp  "unacked bytes"  ETV
vector 294  Topo.controller.tcp  "sent seq"  ETV
vector 323  Topo.s1.tcp  "rcvd dupAcks"  ETV
vector 318  Topo.s1.tcp  "sent seq"  ETV
vector 322  Topo.s1.tcp  "unacked bytes"  ETV
vector 310  Topo.controller.tcp  "measured RTT"  ETV
vector 311  Topo.controller.tcp  "smoothed RTT"  ETV
vector 312  Topo.controller.tcp  RTTVAR  ETV
vector 313  Topo.controller.tcp  RTO  ETV
vector 308  Topo.controller.tcp  cwnd  ETV
vector 299  Topo.controller.tcp  "rcvd dupAcks"  ETV
vector 334  Topo.s1.tcp  "measured RTT"  ETV
vector 335  Topo.s1.tcp  "smoothed RTT"  ETV
vector 336  Topo.s1.tcp  RTTVAR  ETV
vector 337  Topo.s1.tcp  RTO  ETV
vector 332  Topo.s1.tcp  cwnd  ETV
vector 1  Topo.client1.udpApp[0]  sentPk:vector(packetBytes)  ETV
attr interpolationmode  none
attr source  sentPk
attr title  "packets sent, vector(packetBytes)"
vector 3  Topo.client1.udp  sentPk:vector(packetBytes)  ETV
attr interpolationmode  none
attr source  sentPk
attr title  "packets sent, vector(packetBytes)"
vector 4  Topo.client1.udp  sentPk:vector(count)  ETV
attr interpolationmode  none
attr source  sentPk
attr title  "packets sent, vector(count)"
vector 9  Topo.client1.networkLayer.arp  sentReq:vector  ETV
attr title  "ARP request sent, vector"
vector 23  Topo.client1.eth[0].encap  encapPk:vector(packetBytes)  ETV
attr interpolationmode  none
attr source  encapPk
attr title  "packets encapsulated, vector(packetBytes)"
vector 19  Topo.client1.eth[0].mac  rxPkFromHL:vector(packetBytes)  ETV
attr interpolationmode  none
attr source  rxPkFromHL
attr title  "packet bytes from higher layer, vector(packetBytes)"
vector 14  Topo.client1.eth[0].mac  txPk:vector(packetBytes)  ETV
attr interpolationmode  none
attr source  txPk
attr title  "packets transmitted, vector(packetBytes)"
vector 183  Topo.s1.etherMAC[0]  rxPkOk:vector(packetBytes)  ETV
attr interpolationmode  none
attr source  rxPkOk
attr title  "packets received OK, vector(packetBytes)"
vector 184  Topo.s1.etherMAC[0]  passedUpPk:vector(packetBytes)  ETV
attr interpolationmode  none
attr source  packetSentToUpper
attr title  "packets passed to higher layer, vector(packetBytes)"
vector 198  Topo.s1.etherMAC[1]  rxPkFromHL:vector(packetBytes)  ETV
attr interpolationmode  none
attr source  rxPkFromHL
attr title  "packet bytes from higher layer, vector(packetBytes)"
vector 209  Topo.s1.etherMAC[2]  rxPkFromHL:vector(packetBytes)  ETV
attr interpolationmode  none
attr source  rxPkFromHL
attr title  "packet bytes from higher layer, vector(packetBytes)"
vector 220  Topo.s1.etherMAC[3]  rxPkFromHL:vector(packetBytes)  ETV
attr interpolationmode  none
attr source  rxPkFromHL
attr title  "packet bytes from higher layer, vector(packetBytes)"
vector 231  Topo.s1.etherMAC[4]  rxPkFromHL:vector(packetBytes)  ETV
attr interpolationmode  none
attr source  rxPkFromHL
attr title  "packet bytes from higher layer, vector(packetBytes)"
vector 242  Topo.s1.etherMAC[5]  rxPkFromHL:vector(packetBytes)  ETV
attr interpolationmode  none
attr source  rxPkFromHL
attr title  "packet bytes from higher layer, vector(packetBytes)"
vector 253  Topo.s1.etherMAC[6]  rxPkFromHL:vector(packetBytes)  ETV
attr interpolationmode  none
attr source  rxPkFromHL
attr title  "packet bytes from higher layer, vector(packetBytes)"
vector 193  Topo.s1.etherMAC[1]  txPk:vector(packetBytes)  ETV
attr interpolationmode  none
attr source  txPk
attr title  "packets transmitted, vector(packetBytes)"
vector 204  Topo.s1.etherMAC[2]  txPk:vector(packetBytes)  ETV
attr interpolationmode  none
attr source  txPk
attr title  "packets transmitted, vector(packetBytes)"
vector 215  Topo.s1.etherMAC[3]  txPk:vector(packetBytes)  ETV
attr interpolationmode  none
attr source  txPk
attr title  "packets transmitted, vector(packetBytes)"
vector 226  Topo.s1.etherMAC[4]  txPk:vector(packetBytes)  ETV
attr interpolationmode  none
attr source  txPk
attr title  "packets transmitted, vector(packetBytes)"
vector 237  Topo.s1.etherMAC[5]  txPk:vector(packetBytes)  ETV
attr interpolationmode  none
attr source  txPk
attr title  "packets transmitted, vector(packetBytes)"
vector 248  Topo.s1.etherMAC[6]  txPk:vector(packetBytes)  ETV
attr interpolationmode  none
attr source  txPk
attr title  "packets transmitted, vector(packetBytes)"
vector 41  Topo.client2.eth[0].mac  rxPkOk:vector(packetBytes)  ETV
attr interpolationmode  none
attr source  rxPkOk
attr title  "packets received OK, vector(packetBytes)"
vector 42  Topo.client2.eth[0].mac  passedUpPk:vector(packetBytes)  ETV
attr interpolationmode  none
attr source  packetSentToUpper
attr title  "packets passed to higher layer, vector(packetBytes)"
vector 67  Topo.client3.eth[0].mac  rxPkOk:vector(packetBytes)  ETV
attr interpolationmode  none
attr source  rxPkOk
attr title  "packets received OK, vector(packetBytes)"
vector 68  Topo.client3.eth[0].mac  passedUpPk:vector(packetBytes)  ETV
attr interpolationmode  none
attr source  packetSentToUpper
attr title  "packets passed to higher layer, vector(packetBytes)"
vector 93  Topo.client4.eth[0].mac  rxPkOk:vector(packetBytes)  ETV
attr interpolationmode  none
attr source  rxPkOk
attr title  "packets received OK, vector(packetBytes)"
vector 94  Topo.client4.eth[0].mac  passedUpPk:vector(packetBytes)  ETV
attr interpolationmode  none
attr source  packetSentToUpper
attr title  "packets passed to higher layer, vector(packetBytes)"
vector 119  Topo.server1.eth[0].mac  rxPkOk:vector(packetBytes)  ETV
attr interpolationmode  none
attr source  rxPkOk
attr title  "packets received OK, vector(packetBytes)"
vector 120  Topo.server1.eth[0].mac  passedUpPk:vector(packetBytes)  ETV
attr interpolationmode  none
attr source  packetSentToUpper
attr title  "packets passed to higher layer, vector(packetBytes)"
vector 145  Topo.server2.eth[0].mac  rxPkOk:vector(packetBytes)  ETV
attr interpolationmode  none
attr source  rxPkOk
attr title  "packets received OK, vector(packetBytes)"
vector 146  Topo.server2.eth[0].mac  passedUpPk:vector(packetBytes)  ETV
attr interpolationmode  none
attr source  packetSentToUpper
attr title  "packets passed to higher layer, vector(packetBytes)"
vector 171  Topo.server3.eth[0].mac  rxPkOk:vector(packetBytes)  ETV
attr interpolationmode  none
attr source  rxPkOk
attr title  "packets received OK, vector(packetBytes)"
vector 172  Topo.server3.eth[0].mac  passedUpPk:vector(packetBytes)  ETV
attr interpolationmode  none
attr source  packetSentToUpper
attr title  "packets passed to higher layer, vector(packetBytes)"
vector 50  Topo.client2.eth[0].encap  decapPk:vector(packetBytes)  ETV
attr interpolationmode  none
attr source  decapPk
attr title  "packets decapsulated, vector(packetBytes)"
vector 76  Topo.client3.eth[0].encap  decapPk:vector(packetBytes)  ETV
attr interpolationmode  none
attr source  decapPk
attr title  "packets decapsulated, vector(packetBytes)"
vector 102  Topo.client4.eth[0].encap  decapPk:vector(packetBytes)  ETV
attr interpolationmode  none
attr source  decapPk
attr title  "packets decapsulated, vector(packetBytes)"
vector 128  Topo.server1.eth[0].encap  decapPk:vector(packetBytes)  ETV
attr interpolationmode  none
attr source  decapPk
attr title  "packets decapsulated, vector(packetBytes)"
vector 154  Topo.server2.eth[0].encap  decapPk:vector(packetBytes)  ETV
attr interpolationmode  none
attr source  decapPk
attr title  "packets decapsulated, vector(packetBytes)"
vector 180  Topo.server3.eth[0].encap  decapPk:vector(packetBytes)  ETV
attr interpolationmode  none
attr source  decapPk
attr title  "packets decapsulated, vector(packetBytes)"
vector 114  Topo.server1.networkLayer.arp  sentReply:vector  ETV
attr title  "ARP replies sent, vector"
vector 127  Topo.server1.eth[0].encap  encapPk:vector(packetBytes)  ETV
attr interpolationmode  none
attr source  encapPk
attr title  "packets encapsulated, vector(packetBytes)"
vector 123  Topo.server1.eth[0].mac  rxPkFromHL:vector(packetBytes)  ETV
attr interpolationmode  none
attr source  rxPkFromHL
attr title  "packet bytes from higher layer, vector(packetBytes)"
vector 118  Topo.server1.eth[0].mac  txPk:vector(packetBytes)  ETV
attr interpolationmode  none
attr source  txPk
attr title  "packets transmitted, vector(packetBytes)"
vector 227  Topo.s1.etherMAC[4]  rxPkOk:vector(packetBytes)  ETV
attr interpolationmode  none
attr source  rxPkOk
attr title  "packets received OK, vector(packetBytes)"
vector 228  Topo.s1.etherMAC[4]  passedUpPk:vector(packetBytes)  ETV
attr interpolationmode  none
attr source  packetSentToUpper
attr title  "packets passed to higher layer, vector(packetBytes)"
vector 187  Topo.s1.etherMAC[0]  rxPkFromHL:vector(packetBytes)  ETV
attr interpolationmode  none
attr source  rxPkFromHL
attr title  "packet bytes from higher layer, vector(packetBytes)"
vector 182  Topo.s1.etherMAC[0]  txPk:vector(packetBytes)  ETV
attr interpolationmode  none
attr source  txPk
attr title  "packets transmitted, vector(packetBytes)"
vector 15  Topo.client1.eth[0].mac  rxPkOk:vector(packetBytes)  ETV
attr interpolationmode  none
attr source  rxPkOk
attr title  "packets received OK, vector(packetBytes)"
vector 16  Topo.client1.eth[0].mac  passedUpPk:vector(packetBytes)  ETV
attr interpolationmode  none
attr source  packetSentToUpper
attr title  "packets passed to higher layer, vector(packetBytes)"
vector 24  Topo.client1.eth[0].encap  decapPk:vector(packetBytes)  ETV
attr interpolationmode  none
attr source  decapPk
attr title  "packets decapsulated, vector(packetBytes)"
vector 109  Topo.server1.udp  rcvdPk:vector(packetBytes)  ETV
attr interpolationmode  none
attr source  rcvdPk
attr title  "packets received, vector(packetBytes)"
vector 110  Topo.server1.udp  passedUpPk:vector(count)  ETV
attr interpolationmode  none
attr title  "packets passed up, vector(count)"
vector 104  Topo.server1.udpApp[0]  rcvdPk:vector(packetBytes)  ETV
attr interpolationmode  none
attr source  rcvdPk
attr title  "packets received, vector(packetBytes)"
vector 105  Topo.server1.udpApp[0]  rcvdPk:vector(count)  ETV
attr interpolationmode  none
attr source  rcvdPk
attr title  "packets received, vector(count)"
vector 79  Topo.client4.udpApp[0]  sentPk:vector(packetBytes)  ETV
attr interpolationmode  none
attr source  sentPk
attr title  "packets sent, vector(packetBytes)"
vector 81  Topo.client4.udp  sentPk:vector(packetBytes)  ETV
attr interpolationmode  none
attr source  sentPk
attr title  "packets sent, vector(packetBytes)"
vector 82  Topo.client4.udp  sentPk:vector(count)  ETV
attr interpolationmode  none
attr source  sentPk
attr title  "packets sent, vector(count)"
vector 87  Topo.client4.networkLayer.arp  sentReq:vector  ETV
attr title  "ARP request sent, vector"
vector 101  Topo.client4.eth[0].encap  encapPk:vector(packetBytes)  ETV
attr interpolationmode  none
attr source  encapPk
attr title  "packets encapsulated, vector(packetBytes)"
vector 97  Topo.client4.eth[0].mac  rxPkFromHL:vector(packetBytes)  ETV
attr interpolationmode  none
attr source  rxPkFromHL
attr title  "packet bytes from higher layer, vector(packetBytes)"
vector 92  Topo.client4.eth[0].mac  txPk:vector(packetBytes)  ETV
attr interpolationmode  none
attr source  txPk
attr title  "packets transmitted, vector(packetBytes)"
vector 216  Topo.s1.etherMAC[3]  rxPkOk:vector(packetBytes)  ETV
attr interpolationmode  none
attr source  rxPkOk
attr title  "packets received OK, vector(packetBytes)"
vector 217  Topo.s1.etherMAC[3]  passedUpPk:vector(packetBytes)  ETV
attr interpolationmode  none
attr source  packetSentToUpper
attr title  "packets passed to higher layer, vector(packetBytes)"
vector 166  Topo.server3.networkLayer.arp  sentReply:vector  ETV
attr title  "ARP replies sent, vector"
vector 179  Topo.server3.eth[0].encap  encapPk:vector(packetBytes)  ETV
attr interpolationmode  none
attr source  encapPk
attr title  "packets encapsulated, vector(packetBytes)"
vector 175  Topo.server3.eth[0].mac  rxPkFromHL:vector(packetBytes)  ETV
attr interpolationmode  none
attr source  rxPkFromHL
attr title  "packet bytes from higher layer, vector(packetBytes)"
vector 170  Topo.server3.eth[0].mac  txPk:vector(packetBytes)  ETV
attr interpolationmode  none
attr source  txPk
attr title  "packets transmitted, vector(packetBytes)"
vector 249  Topo.s1.etherMAC[6]  rxPkOk:vector(packetBytes)  ETV
attr interpolationmode  none
attr source  rxPkOk
attr title  "packets received OK, vector(packetBytes)"
vector 250  Topo.s1.etherMAC[6]  passedUpPk:vector(packetBytes)  ETV
attr interpolationmode  none
attr source  packetSentToUpper
attr title  "packets passed to higher layer, vector(packetBytes)"
vector 161  Topo.server3.udp  rcvdPk:vector(packetBytes)  ETV
attr interpolationmode  none
attr source  rcvdPk
attr title  "packets received, vector(packetBytes)"
vector 162  Topo.server3.udp  passedUpPk:vector(count)  ETV
attr interpolationmode  none
attr title  "packets passed up, vector(count)"
vector 156  Topo.server3.udpApp[0]  rcvdPk:vector(packetBytes)  ETV
attr interpolationmode  none
attr source  rcvdPk
attr title  "packets received, vector(packetBytes)"
vector 157  Topo.server3.udpApp[0]  rcvdPk:vector(count)  ETV
attr interpolationmode  none
attr source  rcvdPk
attr title  "packets received, vector(count)"
vector 53  Topo.client3.udpApp[0]  sentPk:vector(packetBytes)  ETV
attr interpolationmode  none
attr source  sentPk
attr title  "packets sent, vector(packetBytes)"
vector 55  Topo.client3.udp  sentPk:vector(packetBytes)  ETV
attr interpolationmode  none
attr source  sentPk
attr title  "packets sent, vector(packetBytes)"
vector 56  Topo.client3.udp  sentPk:vector(count)  ETV
attr interpolationmode  none
attr source  sentPk
attr title  "packets sent, vector(count)"
vector 61  Topo.client3.networkLayer.arp  sentReq:vector  ETV
attr title  "ARP request sent, vector"
vector 75  Topo.client3.eth[0].encap  encapPk:vector(packetBytes)  ETV
attr interpolationmode  none
attr source  encapPk
attr title  "packets encapsulated, vector(packetBytes)"
vector 71  Topo.client3.eth[0].mac  rxPkFromHL:vector(packetBytes)  ETV
attr interpolationmode  none
attr source  rxPkFromHL
attr title  "packet bytes from higher layer, vector(packetBytes)"
vector 66  Topo.client3.eth[0].mac  txPk:vector(packetBytes)  ETV
attr interpolationmode  none
attr source  txPk
attr title  "packets transmitted, vector(packetBytes)"
vector 205  Topo.s1.etherMAC[2]  rxPkOk:vector(packetBytes)  ETV
attr interpolationmode  none
attr source  rxPkOk
attr title  "packets received OK, vector(packetBytes)"
vector 206  Topo.s1.etherMAC[2]  passedUpPk:vector(packetBytes)  ETV
attr interpolationmode  none
attr source  packetSentToUpper
attr title  "packets passed to higher layer, vector(packetBytes)"
vector 140  Topo.server2.networkLayer.arp  sentReply:vector  ETV
attr title  "ARP replies sent, vector"
vector 153  Topo.server2.eth[0].encap  encapPk:vector(packetBytes)  ETV
attr interpolationmode  none
attr source  encapPk
attr title  "packets encapsulated, vector(packetBytes)"
vector 149  Topo.server2.eth[0].mac  rxPkFromHL:vector(packetBytes)  ETV
attr interpolationmode  none
attr source  rxPkFromHL
attr title  "packet bytes from higher layer, vector(packetBytes)"
vector 144  Topo.server2.eth[0].mac  txPk:vector(packetBytes)  ETV
attr interpolationmode  none
attr source  txPk
attr title  "packets transmitted, vector(packetBytes)"
vector 238  Topo.s1.etherMAC[5]  rxPkOk:vector(packetBytes)  ETV
attr interpolationmode  none
attr source  rxPkOk
attr title  "packets received OK, vector(packetBytes)"
vector 239  Topo.s1.etherMAC[5]  passedUpPk:vector(packetBytes)  ETV
attr interpolationmode  none
attr source  packetSentToUpper
attr title  "packets passed to higher layer, vector(packetBytes)"
vector 135  Topo.server2.udp  rcvdPk:vector(packetBytes)  ETV
attr interpolationmode  none
attr source  rcvdPk
attr title  "packets received, vector(packetBytes)"
vector 136  Topo.server2.udp  passedUpPk:vector(count)  ETV
attr interpolationmode  none
attr title  "packets passed up, vector(count)"
vector 130  Topo.server2.udpApp[0]  rcvdPk:vector(packetBytes)  ETV
attr interpolationmode  none
attr source  rcvdPk
attr title  "packets received, vector(packetBytes)"
vector 131  Topo.server2.udpApp[0]  rcvdPk:vector(count)  ETV
attr interpolationmode  none
attr source  rcvdPk
attr title  "packets received, vector(count)"
vector 27  Topo.client2.udpApp[0]  sentPk:vector(packetBytes)  ETV
attr interpolationmode  none
attr source  sentPk
attr title  "packets sent, vector(packetBytes)"
vector 29  Topo.client2.udp  sentPk:vector(packetBytes)  ETV
attr interpolationmode  none
attr source  sentPk
attr title  "packets sent, vector(packetBytes)"
vector 30  Topo.client2.udp  sentPk:vector(count)  ETV
attr interpolationmode  none
attr source  sentPk
attr title  "packets sent, vector(count)"
vector 35  Topo.client2.networkLayer.arp  sentReq:vector  ETV
attr title  "ARP request sent, vector"
vector 49  Topo.client2.eth[0].encap  encapPk:vector(packetBytes)  ETV
attr interpolationmode  none
attr source  encapPk
attr title  "packets encapsulated, vector(packetBytes)"
vector 45  Topo.client2.eth[0].mac  rxPkFromHL:vector(packetBytes)  ETV
attr interpolationmode  none
attr source  rxPkFromHL
attr title  "packet bytes from higher layer, vector(packetBytes)"
vector 40  Topo.client2.eth[0].mac  txPk:vector(packetBytes)  ETV
attr interpolationmode  none
attr source  txPk
attr title  "packets transmitted, vector(packetBytes)"
vector 194  Topo.s1.etherMAC[1]  rxPkOk:vector(packetBytes)  ETV
attr interpolationmode  none
attr source  rxPkOk
attr title  "packets received OK, vector(packetBytes)"
vector 195  Topo.s1.etherMAC[1]  passedUpPk:vector(packetBytes)  ETV
attr interpolationmode  none
attr source  packetSentToUpper
attr title  "packets passed to higher layer, vector(packetBytes)"
vector 158  Topo.server3.udpApp[0]  rcvdAppPkt:vector  ETV
attr interpolationmode  none
attr source  rcvdAppPkt
attr title  "packets received during sec, vector"
vector 106  Topo.server1.udpApp[0]  rcvdAppPkt:vector  ETV
attr interpolationmode  none
attr source  rcvdAppPkt
attr title  "packets received during sec, vector"
vector 132  Topo.server2.udpApp[0]  rcvdAppPkt:vector  ETV
attr interpolationmode  none
attr source  rcvdAppPkt
attr title  "packets received during sec, vector"
1	181	0.1	1250
1	635	0.2	1250
1	1114	0.3	1250
1	1593	0.4	1250
1	1644	0.5	1250
1	1673	0.6	1250
1	2201	0.7	1250
1	2228	0.8	1250
1	2280	0.9	1250
1	2332	1	1250
1	2383	1.1	1250
1	2412	1.2	1250
1	2513	1.3	1250
1	2540	1.4	1250
1	2592	1.5	1250
1	2644	1.6	1250
1	2695	1.7	1250
1	2724	1.8	1250
1	2825	1.9	1250
1	2852	2	1250
1	2904	2.1	1250
1	2956	2.2	1250
1	3007	2.3	1250
1	3036	2.4	1250
1	3137	2.5	1250
1	3164	2.6	1250
1	3216	2.7	1250
1	3268	2.8	1250
1	3319	2.9	1250
1	3348	3	1250
1	3449	3.1	1250
1	3476	3.2	1250
1	3528	3.3	1250
1	3580	3.4	1250
1	3631	3.5	1250
1	3660	3.6	1250
1	3761	3.7	1250
1	3788	3.8	1250
1	3840	3.9	1250
1	3892	4	1250
1	3943	4.1	1250
1	3972	4.2	1250
1	4073	4.3	1250
1	4100	4.4	1250
1	4152	4.5	1250
1	4204	4.6	1250
1	4255	4.7	1250
1	4284	4.8	1250
1	4385	4.9	1250
1	4412	5	1250
1	4464	5.1	1250
1	4516	5.2	1250
1	4567	5.3	1250
1	4596	5.4	1250
1	4697	5.5	1250
1	4724	5.6	1250
1	4776	5.7	1250
1	4828	5.8	1250
1	4879	5.9	1250
1	4908	6	1250
1	5009	6.1	1250
1	5036	6.2	1250
1	5088	6.3	1250
1	5140	6.4	1250
1	5191	6.5	1250
1	5220	6.6	1250
1	5321	6.7	1250
1	5348	6.8	1250
1	5400	6.9	1250
1	5452	7	1250
1	5503	7.1	1250
1	5532	7.2	1250
1	5633	7.3	1250
1	5660	7.4	1250
1	5712	7.5	1250
1	5764	7.6	1250
1	5815	7.7	1250
1	5844	7.8	1250
1	5945	7.9	1250
1	5972	8	1250
1	6024	8.1	1250
1	6076	8.2	1250
1	6127	8.3	1250
1	6156	8.4	1250
1	6257	8.5	1250
1	6284	8.6	1250
1	6336	8.7	1250
1	6388	8.8	1250
1	6439	8.9	1250
1	6468	9	1250
1	6569	9.1	1250
1	6596	9.2	1250
1	6648	9.3	1250
1	6700	9.4	1250
1	6751	9.5	1250
1	6780	9.6	1250
1	6881	9.7	1250
1	6908	9.8	1250
1	6960	9.9	1250
1	7012	10	1250
1	7063	10.1	1250
1	7092	10.2	1250
1	7193	10.3	1250
1	7220	10.4	1250
1	7272	10.5	1250
1	7324	10.6	1250
1	7375	10.7	1250
1	7404	10.8	1250
1	7505	10.9	1250
1	7532	11	1250
1	7584	11.1	1250
1	7636	11.2	1250
1	7687	11.3	1250
1	7716	11.4	1250
1	7817	11.5	1250
1	7844	11.6	1250
1	7896	11.7	1250
1	7948	11.8	1250
1	7999	11.9	1250
1	8028	12	1250
1	8129	12.1	1250
1	8156	12.2	1250
1	8208	12.3	1250
1	8260	12.4	1250
1	8311	12.5	1250
1	8340	12.6	1250
1	8441	12.7	1250
1	8468	12.8	1250
1	8520	12.9	1250
1	8572	13	1250
1	8623	13.1	1250
1	8652	13.2	1250
1	8753	13.3	1250
1	8780	13.4	1250
1	8832	13.5	1250
1	8884	13.6	1250
1	8935	13.7	1250
1	8964	13.8	1250
1	9065	13.9	1250
1	9092	14	1250
1	9144	14.1	1250
1	9196	14.2	1250
1	9247	14.3	1250
1	9276	14.4	1250
1	9377	14.5	1250
1	9404	14.6	1250
1	9456	14.7	1250
1	9508	14.8	1250
1	9559	14.9	1250
1	9588	15	1250
1	9689	15.1	1250
1	9716	15.2	1250
1	9768	15.3	1250
1	9820	15.4	1250
1	9871	15.5	1250
1	9900	15.6	1250
1	10001	15.7	1250
1	10028	15.8	1250
1	10080	15.9	1250
1	10132	16	1250
1	10183	16.1	1250
1	10212	16.2	1250
1	10313	16.3	1250
1	10340	16.4	1250
1	10392	16.5	1250
1	10444	16.6	1250
1	10495	16.7	1250
1	10524	16.8	1250
1	10625	16.9	1250
1	10652	17	1250
1	10704	17.1	1250
1	10756	17.2	1250
1	10807	17.3	1250
1	10836	17.4	1250
1	10937	17.5	1250
1	10964	17.6	1250
1	11016	17.7	1250
1	11068	17.8	1250
1	11119	17.9	1250
1	11148	18	1250
1	11249	18.1	1250
1	11276	18.2	1250
1	11328	18.3	1250
1	11380	18.4	1250
1	11431	18.5	1250
1	11460	18.6	1250
1	11561	18.7	1250
1	11588	18.8	1250
1	11640	18.9	1250
1	11692	19	1250
1	11743	19.1	1250
1	11772	19.2	1250
1	11873	19.3	1250
1	11900	19.4	1250
1	11952	19.5	1250
1	12004	19.6	1250
1	12055	19.7	1250
1	12084	19.8	1250
1	12185	19.9	1250
1	12213	20	1250
1	12265	20.1	1250
1	12317	20.2	1250
1	12368	20.3	1250
1	12397	20.4	1250
1	12474	20.5	1250
1	12501	20.6	1250
1	12553	20.7	1250
1	12605	20.8	1250
1	12656	20.9	1250
1	12685	21	1250
1	12762	21.1	1250
1	12789	21.2	1250
1	12841	21.3	1250
1	12893	21.4	1250
1	12944	21.5	1250
1	12973	21.6	1250
1	13050	21.7	1250
1	13077	21.8	1250
1	13129	21.9	1250
3	185	0.1	1258
3	641	0.2	1258
3	1120	0.3	1258
3	1597	0.4	1258
3	1646	0.5	1258
3	1683	0.6	1258
3	2203	0.7	1258
3	2232	0.8	1258
3	2284	0.9	1258
3	2336	1	1258
3	2385	1.1	1258
3	2420	1.2	1258
3	2515	1.3	1258
3	2544	1.4	1258
3	2596	1.5	1258
3	2648	1.6	1258
3	2697	1.7	1258
3	2732	1.8	1258
3	2827	1.9	1258
3	2856	2	1258
3	2908	2.1	1258
3	2960	2.2	1258
3	3009	2.3	1258
3	3044	2.4	1258
3	3139	2.5	1258
3	3168	2.6	1258
3	3220	2.7	1258
3	3272	2.8	1258
3	3321	2.9	1258
3	3356	3	1258
3	3451	3.1	1258
3	3480	3.2	1258
3	3532	3.3	1258
3	3584	3.4	1258
3	3633	3.5	1258
3	3668	3.6	1258
3	3763	3.7	1258
3	3792	3.8	1258
3	3844	3.9	1258
3	3896	4	1258
3	3945	4.1	1258
3	3980	4.2	1258
3	4075	4.3	1258
3	4104	4.4	1258
3	4156	4.5	1258
3	4208	4.6	1258
3	4257	4.7	1258
3	4292	4.8	1258
3	4387	4.9	1258
3	4416	5	1258
3	4468	5.1	1258
3	4520	5.2	1258
3	4569	5.3	1258
3	4604	5.4	1258
3	4699	5.5	1258
3	4728	5.6	1258
3	4780	5.7	1258
3	4832	5.8	1258
3	4881	5.9	1258
3	4916	6	1258
3	5011	6.1	1258
3	5040	6.2	1258
3	5092	6.3	1258
3	5144	6.4	1258
3	5193	6.5	1258
3	5228	6.6	1258
3	5323	6.7	1258
3	5352	6.8	1258
3	5404	6.9	1258
3	5456	7	1258
3	5505	7.1	1258
3	5540	7.2	1258
3	5635	7.3	1258
3	5664	7.4	1258
3	5716	7.5	1258
3	5768	7.6	1258
3	5817	7.7	1258
3	5852	7.8	1258
3	5947	7.9	1258
3	5976	8	1258
3	6028	8.1	1258
3	6080	8.2	1258
3	6129	8.3	1258
3	6164	8.4	1258
3	6259	8.5	1258
3	6288	8.6	1258
3	6340	8.7	1258
3	6392	8.8	1258
3	6441	8.9	1258
3	6476	9	1258
3	6571	9.1	1258
3	6600	9.2	1258
3	6652	9.3	1258
3	6704	9.4	1258
3	6753	9.5	1258
3	6788	9.6	1258
3	6883	9.7	1258
3	6912	9.8	1258
3	6964	9.9	1258
3	7016	10	1258
3	7065	10.1	1258
3	7100	10.2	1258
3	7195	10.3	1258
3	7224	10.4	1258
3	7276	10.5	1258
3	7328	10.6	1258
3	7377	10.7	1258
3	7412	10.8	1258
3	7507	10.9	1258
3	7536	11	1258
3	7588	11.1	1258
3	7640	11.2	1258
3	7689	11.3	1258
3	7724	11.4	1258
3	7819	11.5	1258
3	7848	11.6	1258
3	7900	11.7	1258
3	7952	11.8	1258
3	8001	11.9	1258
3	8036	12	1258
3	8131	12.1	1258
3	8160	12.2	1258
3	8212	12.3	1258
3	8264	12.4	1258
3	8313	12.5	1258
3	8348	12.6	1258
3	8443	12.7	1258
3	8472	12.8	1258
3	8524	12.9	1258
3	8576	13	1258
3	8625	13.1	1258
3	8660	13.2	1258
3	8755	13.3	1258
3	8784	13.4	1258
3	8836	13.5	1258
3	8888	13.6	1258
3	8937	13.7	1258
3	8972	13.8	1258
3	9067	13.9	1258
3	9096	14	1258
3	9148	14.1	1258
3	9200	14.2	1258
3	9249	14.3	1258
3	9284	14.4	1258
3	9379	14.5	1258
3	9408	14.6	1258
3	9460	14.7	1258
3	9512	14.8	1258
3	9561	14.9	1258
3	9596	15	1258
3	9691	15.1	1258
3	9720	15.2	1258
3	9772	15.3	1258
3	9824	15.4	1258
3	9873	15.5	1258
3	9908	15.6	1258
3	10003	15.7	1258
3	10032	15.8	1258
3	10084	15.9	1258
3	10136	16	1258
3	10185	16.1	1258
3	10220	16.2	1258
3	10315	16.3	1258
3	10344	16.4	1258
3	10396	16.5	1258
3	10448	16.6	1258
3	10497	16.7	1258
3	10532	16.8	1258
3	10627	16.9	1258
3	10656	17	1258
3	10708	17.1	1258
3	10760	17.2	1258
3	10809	17.3	1258
3	10844	17.4	1258
3	10939	17.5	1258
3	10968	17.6	1258
3	11020	17.7	1258
3	11072	17.8	1258
3	11121	17.9	1258
3	11156	18	1258
3	11251	18.1	1258
3	11280	18.2	1258
3	11332	18.3	1258
3	11384	18.4	1258
3	11433	18.5	1258
3	11468	18.6	1258
3	11563	18.7	1258
3	11592	18.8	1258
3	11644	18.9	1258
3	11696	19	1258
3	11745	19.1	1258
3	11780	19.2	1258
3	11875	19.3	1258
3	11904	19.4	1258
3	11956	19.5	1258
3	12008	19.6	1258
3	12057	19.7	1258
3	12092	19.8	1258
3	12187	19.9	1258
3	12217	20	1258
3	12269	20.1	1258
3	12321	20.2	1258
3	12370	20.3	1258
3	12404	20.4	1258
3	12476	20.5	1258
3	12505	20.6	1258
3	12557	20.7	1258
3	12609	20.8	1258
3	12658	20.9	1258
3	12692	21	1258
3	12764	21.1	1258
3	12793	21.2	1258
3	12845	21.3	1258
3	12897	21.4	1258
3	12946	21.5	1258
3	12980	21.6	1258
3	13052	21.7	1258
3	13081	21.8	1258
3	13133	21.9	1258
4	185	0.1	1
4	641	0.2	2
4	1120	0.3	3
4	1597	0.4	4
4	1646	0.5	5
4	1683	0.6	6
4	2203	0.7	7
4	2232	0.8	8
4	2284	0.9	9
4	2336	1	10
4	2385	1.1	11
4	2420	1.2	12
4	2515	1.3	13
4	2544	1.4	14
4	2596	1.5	15
4	2648	1.6	16
4	2697	1.7	17
4	2732	1.8	18
4	2827	1.9	19
4	2856	2	20
4	2908	2.1	21
4	2960	2.2	22
4	3009	2.3	23
4	3044	2.4	24
4	3139	2.5	25
4	3168	2.6	26
4	3220	2.7	27
4	3272	2.8	28
4	3321	2.9	29
4	3356	3	30
4	3451	3.1	31
4	3480	3.2	32
4	3532	3.3	33
4	3584	3.4	34
4	3633	3.5	35
4	3668	3.6	36
4	3763	3.7	37
4	3792	3.8	38
4	3844	3.9	39
4	3896	4	40
4	3945	4.1	41
4	3980	4.2	42
4	4075	4.3	43
4	4104	4.4	44
4	4156	4.5	45
4	4208	4.6	46
4	4257	4.7	47
4	4292	4.8	48
4	4387	4.9	49
4	4416	5	50
4	4468	5.1	51
4	4520	5.2	52
4	4569	5.3	53
4	4604	5.4	54
4	4699	5.5	55
4	4728	5.6	56
4	4780	5.7	57
4	4832	5.8	58
4	4881	5.9	59
4	4916	6	60
4	5011	6.1	61
4	5040	6.2	62
4	5092	6.3	63
4	5144	6.4	64
4	5193	6.5	65
4	5228	6.6	66
4	5323	6.7	67
4	5352	6.8	68
4	5404	6.9	69
4	5456	7	70
4	5505	7.1	71
4	5540	7.2	72
4	5635	7.3	73
4	5664	7.4	74