version 2
run disable-0-20161121-09:50:49-3382
attr configname disable
attr datetime 20161121-09:50:49
attr experiment disable
attr inifile omnetpp.ini
attr iterationvars ""
attr iterationvars2 $repetition=0
attr measurement ""
attr network Topo
attr processid 3382
attr repetition 0
attr replication #0
attr resultdir results
attr runnumber 0
attr seedset 0

vector 329  Topo.s1.tcp  tcpRcvQueueBytes  ETV
vector 316  Topo.s1.tcp  "advertised window"  ETV
vector 315  Topo.s1.tcp  "receive window"  ETV
vector 318  Topo.s1.tcp  "sent ack"  ETV
vector 259  Topo.s1.networkLayer.arp  sentReq:vector  ETV
attr title  "ARP request sent, vector"
vector 270  Topo.s1.eth[0].encap  encapPk:vector(packetBytes)  ETV
attr interpolationmode  none
attr source  encapPk
attr title  "packets encapsulated, vector(packetBytes)"
vector 266  Topo.s1.eth[0].mac  rxPkFromHL:vector(packetBytes)  ETV
attr interpolationmode  none
attr source  rxPkFromHL
attr title  "packet bytes from higher layer, vector(packetBytes)"
vector 261  Topo.s1.eth[0].mac  txPk:vector(packetBytes)  ETV
attr interpolationmode  none
attr source  txPk
attr title  "packets transmitted, vector(packetBytes)"
vector 279  Topo.controller.eth[0].mac  rxPkOk:vector(packetBytes)  ETV
attr interpolationmode  none
attr source  rxPkOk
attr title  "packets received OK, vector(packetBytes)"
vector 280  Topo.controller.eth[0].mac  passedUpPk:vector(packetBytes)  ETV
attr interpolationmode  none
attr source  packetSentToUpper
attr title  "packets passed to higher layer, vector(packetBytes)"
vector 288  Topo.controller.eth[0].encap  decapPk:vector(packetBytes)  ETV
attr interpolationmode  none
attr source  decapPk
attr title  "packets decapsulated, vector(packetBytes)"
vector 274  Topo.controller.networkLayer.arp  sentReply:vector  ETV
attr title  "ARP replies sent, vector"
vector 287  Topo.controller.eth[0].encap  encapPk:vector(packetBytes)  ETV
attr interpolationmode  none
attr source  encapPk
attr title  "packets encapsulated, vector(packetBytes)"
vector 283  Topo.controller.eth[0].mac  rxPkFromHL:vector(packetBytes)  ETV
attr interpolationmode  none
attr source  rxPkFromHL
attr title  "packet bytes from higher layer, vector(packetBytes)"
vector 278  Topo.controller.eth[0].mac  txPk:vector(packetBytes)  ETV
attr interpolationmode  none
attr source  txPk
attr title  "packets transmitted, vector(packetBytes)"
vector 262  Topo.s1.eth[0].mac  rxPkOk:vector(packetBytes)  ETV
attr interpolationmode  none
attr source  rxPkOk
attr title  "packets received OK, vector(packetBytes)"
vector 263  Topo.s1.eth[0].mac  passedUpPk:vector(packetBytes)  ETV
attr interpolationmode  none
attr source  packetSentToUpper
attr title  "packets passed to higher layer, vector(packetBytes)"
vector 271  Topo.s1.eth[0].encap  decapPk:vector(packetBytes)  ETV
attr interpolationmode  none
attr source  decapPk
attr title  "packets decapsulated, vector(packetBytes)"
vector 295  Topo.controller.tcp  "rcvd seq"  ETV
vector 296  Topo.controller.tcp  "rcvd ack"  ETV
vector 292  Topo.controller.tcp  "advertised window"  ETV
vector 290  Topo.controller.tcp  "send window"  ETV
vector 305  Topo.controller.tcp  tcpRcvQueueBytes  ETV
vector 291  Topo.controller.tcp  "receive window"  ETV
vector 294  Topo.controller.tcp  "sent ack"  ETV
vector 319  Topo.s1.tcp  "rcvd seq"  ETV
vector 320  Topo.s1.tcp  "rcvd ack"  ETV
vector 314  Topo.s1.tcp  "send window"  ETV
vector 297  Topo.controller.tcp  "unacked bytes"  ETV
vector 293  Topo.controller.tcp  "sent seq"  ETV
vector 322  Topo.s1.tcp  "rcvd dupAcks"  ETV
vector 317  Topo.s1.tcp  "sent seq"  ETV
vector 321  Topo.s1.tcp  "unacked bytes"  ETV
vector 309  Topo.controller.tcp  "measured RTT"  ETV
vector 310  Topo.controller.tcp  "smoothed RTT"  ETV
vector 311  Topo.controller.tcp  RTTVAR  ETV
vector 312  Topo.controller.tcp  RTO  ETV
vector 307  Topo.controller.tcp  cwnd  ETV
vector 298  Topo.controller.tcp  "rcvd dupAcks"  ETV
vector 333  Topo.s1.tcp  "measured RTT"  ETV
vector 334  Topo.s1.tcp  "smoothed RTT"  ETV
vector 335  Topo.s1.tcp  RTTVAR  ETV
vector 336  Topo.s1.tcp  RTO  ETV
vector 331  Topo.s1.tcp  cwnd  ETV
vector 1  Topo.client1.udpApp[0]  sentPk:vector(packetBytes)  ETV
attr interpolationmode  none
attr source  sentPk
attr title  "packets sent, vector(packetBytes)"
vector 3  Topo.client1.udp  sentPk:vector(packetBytes)  ETV
attr interpolationmode  none
attr source  sentPk
attr title  "packets sent, vector(packetBytes)"
vector 4  Topo.client1.udp  sentPk:vector(count)  ETV
attr interpolationmode  none
attr source  sentPk
attr title  "packets sent, vector(count)"
vector 9  Topo.client1.networkLayer.arp  sentReq:vector  ETV
attr title  "ARP request sent, vector"
vector 23  Topo.client1.eth[0].encap  encapPk:vector(packetBytes)  ETV
attr interpolationmode  none
attr source  encapPk
attr title  "packets encapsulated, vector(packetBytes)"
vector 19  Topo.client1.eth[0].mac  rxPkFromHL:vector(packetBytes)  ETV
attr interpolationmode  none
attr source  rxPkFromHL
attr title  "packet bytes from higher layer, vector(packetBytes)"
vector 14  Topo.client1.eth[0].mac  txPk:vector(packetBytes)  ETV
attr interpolationmode  none
attr source  txPk
attr title  "packets transmitted, vector(packetBytes)"
vector 183  Topo.s1.etherMAC[0]  rxPkOk:vector(packetBytes)  ETV
attr interpolationmode  none
attr source  rxPkOk
attr title  "packets received OK, vector(packetBytes)"
vector 184  Topo.s1.etherMAC[0]  passedUpPk:vector(packetBytes)  ETV
attr interpolationmode  none
attr source  packetSentToUpper
attr title  "packets passed to higher layer, vector(packetBytes)"
vector 198  Topo.s1.etherMAC[1]  rxPkFromHL:vector(packetBytes)  ETV
attr interpolationmode  none
attr source  rxPkFromHL
attr title  "packet bytes from higher layer, vector(packetBytes)"
vector 209  Topo.s1.etherMAC[2]  rxPkFromHL:vector(packetBytes)  ETV
attr interpolationmode  none
attr source  rxPkFromHL
attr title  "packet bytes from higher layer, vector(packetBytes)"
vector 220  Topo.s1.etherMAC[3]  rxPkFromHL:vector(packetBytes)  ETV
attr interpolationmode  none
attr source  rxPkFromHL
attr title  "packet bytes from higher layer, vector(packetBytes)"
vector 231  Topo.s1.etherMAC[4]  rxPkFromHL:vector(packetBytes)  ETV
attr interpolationmode  none
attr source  rxPkFromHL
attr title  "packet bytes from higher layer, vector(packetBytes)"
vector 242  Topo.s1.etherMAC[5]  rxPkFromHL:vector(packetBytes)  ETV
attr interpolationmode  none
attr source  rxPkFromHL
attr title  "packet bytes from higher layer, vector(packetBytes)"
vector 253  Topo.s1.etherMAC[6]  rxPkFromHL:vector(packetBytes)  ETV
attr interpolationmode  none
attr source  rxPkFromHL
attr title  "packet bytes from higher layer, vector(packetBytes)"
vector 193  Topo.s1.etherMAC[1]  txPk:vector(packetBytes)  ETV
attr interpolationmode  none
attr source  txPk
attr title  "packets transmitted, vector(packetBytes)"
vector 204  Topo.s1.etherMAC[2]  txPk:vector(packetBytes)  ETV
attr interpolationmode  none
attr source  txPk
attr title  "packets transmitted, vector(packetBytes)"
vector 215  Topo.s1.etherMAC[3]  txPk:vector(packetBytes)  ETV
attr interpolationmode  none
attr source  txPk
attr title  "packets transmitted, vector(packetBytes)"
vector 226  Topo.s1.etherMAC[4]  txPk:vector(packetBytes)  ETV
attr interpolationmode  none
attr source  txPk
attr title  "packets transmitted, vector(packetBytes)"
vector 237  Topo.s1.etherMAC[5]  txPk:vector(packetBytes)  ETV
attr interpolationmode  none
attr source  txPk
attr title  "packets transmitted, vector(packetBytes)"
vector 248  Topo.s1.etherMAC[6]  txPk:vector(packetBytes)  ETV
attr interpolationmode  none
attr source  txPk
attr title  "packets transmitted, vector(packetBytes)"
vector 41  Topo.client2.eth[0].mac  rxPkOk:vector(packetBytes)  ETV
attr interpolationmode  none
attr source  rxPkOk
attr title  "packets received OK, vector(packetBytes)"
vector 42  Topo.client2.eth[0].mac  passedUpPk:vector(packetBytes)  ETV
attr interpolationmode  none
attr source  packetSentToUpper
attr title  "packets passed to higher layer, vector(packetBytes)"
vector 67  Topo.client3.eth[0].mac  rxPkOk:vector(packetBytes)  ETV
attr interpolationmode  none
attr source  rxPkOk
attr title  "packets received OK, vector(packetBytes)"
vector 68  Topo.client3.eth[0].mac  passedUpPk:vector(packetBytes)  ETV
attr interpolationmode  none
attr source  packetSentToUpper
attr title  "packets passed to higher layer, vector(packetBytes)"
vector 93  Topo.client4.eth[0].mac  rxPkOk:vector(packetBytes)  ETV
attr interpolationmode  none
attr source  rxPkOk
attr title  "packets received OK, vector(packetBytes)"
vector 94  Topo.client4.eth[0].mac  passedUpPk:vector(packetBytes)  ETV
attr interpolationmode  none
attr source  packetSentToUpper
attr title  "packets passed to higher layer, vector(packetBytes)"
vector 119  Topo.server1.eth[0].mac  rxPkOk:vector(packetBytes)  ETV
attr interpolationmode  none
attr source  rxPkOk
attr title  "packets received OK, vector(packetBytes)"
vector 120  Topo.server1.eth[0].mac  passedUpPk:vector(packetBytes)  ETV
attr interpolationmode  none
attr source  packetSentToUpper
attr title  "packets passed to higher layer, vector(packetBytes)"
vector 145  Topo.server2.eth[0].mac  rxPkOk:vector(packetBytes)  ETV
attr interpolationmode  none
attr source  rxPkOk
attr title  "packets received OK, vector(packetBytes)"
vector 146  Topo.server2.eth[0].mac  passedUpPk:vector(packetBytes)  ETV
attr interpolationmode  none
attr source  packetSentToUpper
attr title  "packets passed to higher layer, vector(packetBytes)"
vector 171  Topo.server3.eth[0].mac  rxPkOk:vector(packetBytes)  ETV
attr interpolationmode  none
attr source  rxPkOk
attr title  "packets received OK, vector(packetBytes)"
vector 172  Topo.server3.eth[0].mac  passedUpPk:vector(packetBytes)  ETV
attr interpolationmode  none
attr source  packetSentToUpper
attr title  "packets passed to higher layer, vector(packetBytes)"
vector 50  Topo.client2.eth[0].encap  decapPk:vector(packetBytes)  ETV
attr interpolationmode  none
attr source  decapPk
attr title  "packets decapsulated, vector(packetBytes)"
vector 76  Topo.client3.eth[0].encap  decapPk:vector(packetBytes)  ETV
attr interpolationmode  none
attr source  decapPk
attr title  "packets decapsulated, vector(packetBytes)"
vector 102  Topo.client4.eth[0].encap  decapPk:vector(packetBytes)  ETV
attr interpolationmode  none
attr source  decapPk
attr title  "packets decapsulated, vector(packetBytes)"
vector 128  Topo.server1.eth[0].encap  decapPk:vector(packetBytes)  ETV
attr interpolationmode  none
attr source  decapPk
attr title  "packets decapsulated, vector(packetBytes)"
vector 154  Topo.server2.eth[0].encap  decapPk:vector(packetBytes)  ETV
attr interpolationmode  none
attr source  decapPk
attr title  "packets decapsulated, vector(packetBytes)"
vector 180  Topo.server3.eth[0].encap  decapPk:vector(packetBytes)  ETV
attr interpolationmode  none
attr source  decapPk
attr title  "packets decapsulated, vector(packetBytes)"
vector 114  Topo.server1.networkLayer.arp  sentReply:vector  ETV
attr title  "ARP replies sent, vector"
vector 127  Topo.server1.eth[0].encap  encapPk:vector(packetBytes)  ETV
attr interpolationmode  none
attr source  encapPk
attr title  "packets encapsulated, vector(packetBytes)"
vector 123  Topo.server1.eth[0].mac  rxPkFromHL:vector(packetBytes)  ETV
attr interpolationmode  none
attr source  rxPkFromHL
attr title  "packet bytes from higher layer, vector(packetBytes)"
vector 118  Topo.server1.eth[0].mac  txPk:vector(packetBytes)  ETV
attr interpolationmode  none
attr source  txPk
attr title  "packets transmitted, vector(packetBytes)"
vector 227  Topo.s1.etherMAC[4]  rxPkOk:vector(packetBytes)  ETV
attr interpolationmode  none
attr source  rxPkOk
attr title  "packets received OK, vector(packetBytes)"
vector 228  Topo.s1.etherMAC[4]  passedUpPk:vector(packetBytes)  ETV
attr interpolationmode  none
attr source  packetSentToUpper
attr title  "packets passed to higher layer, vector(packetBytes)"
vector 187  Topo.s1.etherMAC[0]  rxPkFromHL:vector(packetBytes)  ETV
attr interpolationmode  none
attr source  rxPkFromHL
attr title  "packet bytes from higher layer, vector(packetBytes)"
vector 182  Topo.s1.etherMAC[0]  txPk:vector(packetBytes)  ETV
attr interpolationmode  none
attr source  txPk
attr title  "packets transmitted, vector(packetBytes)"
vector 15  Topo.client1.eth[0].mac  rxPkOk:vector(packetBytes)  ETV
attr interpolationmode  none
attr source  rxPkOk
attr title  "packets received OK, vector(packetBytes)"
vector 16  Topo.client1.eth[0].mac  passedUpPk:vector(packetBytes)  ETV
attr interpolationmode  none
attr source  packetSentToUpper
attr title  "packets passed to higher layer, vector(packetBytes)"
vector 24  Topo.client1.eth[0].encap  decapPk:vector(packetBytes)  ETV
attr interpolationmode  none
attr source  decapPk
attr title  "packets decapsulated, vector(packetBytes)"
vector 109  Topo.server1.udp  rcvdPk:vector(packetBytes)  ETV
attr interpolationmode  none
attr source  rcvdPk
attr title  "packets received, vector(packetBytes)"
vector 110  Topo.server1.udp  passedUpPk:vector(count)  ETV
attr interpolationmode  none
attr title  "packets passed up, vector(count)"
vector 104  Topo.server1.udpApp[0]  rcvdPk:vector(packetBytes)  ETV
attr interpolationmode  none
attr source  rcvdPk
attr title  "packets received, vector(packetBytes)"
vector 105  Topo.server1.udpApp[0]  rcvdPk:vector(count)  ETV
attr interpolationmode  none
attr source  rcvdPk
attr title  "packets received, vector(count)"
vector 79  Topo.client4.udpApp[0]  sentPk:vector(packetBytes)  ETV
attr interpolationmode  none
attr source  sentPk
attr title  "packets sent, vector(packetBytes)"
vector 81  Topo.client4.udp  sentPk:vector(packetBytes)  ETV
attr interpolationmode  none
attr source  sentPk
attr title  "packets sent, vector(packetBytes)"
vector 82  Topo.client4.udp  sentPk:vector(count)  ETV
attr interpolationmode  none
attr source  sentPk
attr title  "packets sent, vector(count)"
vector 87  Topo.client4.networkLayer.arp  sentReq:vector  ETV
attr title  "ARP request sent, vector"
vector 101  Topo.client4.eth[0].encap  encapPk:vector(packetBytes)  ETV
attr interpolationmode  none
attr source  encapPk
attr title  "packets encapsulated, vector(packetBytes)"
vector 97  Topo.client4.eth[0].mac  rxPkFromHL:vector(packetBytes)  ETV
attr interpolationmode  none
attr source  rxPkFromHL
attr title  "packet bytes from higher layer, vector(packetBytes)"
vector 92  Topo.client4.eth[0].mac  txPk:vector(packetBytes)  ETV
attr interpolationmode  none
attr source  txPk
attr title  "packets transmitted, vector(packetBytes)"
vector 216  Topo.s1.etherMAC[3]  rxPkOk:vector(packetBytes)  ETV
attr interpolationmode  none
attr source  rxPkOk
attr title  "packets received OK, vector(packetBytes)"
vector 217  Topo.s1.etherMAC[3]  passedUpPk:vector(packetBytes)  ETV
attr interpolationmode  none
attr source  packetSentToUpper
attr title  "packets passed to higher layer, vector(packetBytes)"
vector 166  Topo.server3.networkLayer.arp  sentReply:vector  ETV
attr title  "ARP replies sent, vector"
vector 179  Topo.server3.eth[0].encap  encapPk:vector(packetBytes)  ETV
attr interpolationmode  none
attr source  encapPk
attr title  "packets encapsulated, vector(packetBytes)"
vector 175  Topo.server3.eth[0].mac  rxPkFromHL:vector(packetBytes)  ETV
attr interpolationmode  none
attr source  rxPkFromHL
attr title  "packet bytes from higher layer, vector(packetBytes)"
vector 170  Topo.server3.eth[0].mac  txPk:vector(packetBytes)  ETV
attr interpolationmode  none
attr source  txPk
attr title  "packets transmitted, vector(packetBytes)"
vector 249  Topo.s1.etherMAC[6]  rxPkOk:vector(packetBytes)  ETV
attr interpolationmode  none
attr source  rxPkOk
attr title  "packets received OK, vector(packetBytes)"
vector 250  Topo.s1.etherMAC[6]  passedUpPk:vector(packetBytes)  ETV
attr interpolationmode  none
attr source  packetSentToUpper
attr title  "packets passed to higher layer, vector(packetBytes)"
vector 161  Topo.server3.udp  rcvdPk:vector(packetBytes)  ETV
attr interpolationmode  none
attr source  rcvdPk
attr title  "packets received, vector(packetBytes)"
vector 162  Topo.server3.udp  passedUpPk:vector(count)  ETV
attr interpolationmode  none
attr title  "packets passed up, vector(count)"
vector 156  Topo.server3.udpApp[0]  rcvdPk:vector(packetBytes)  ETV
attr interpolationmode  none
attr source  rcvdPk
attr title  "packets received, vector(packetBytes)"
vector 157  Topo.server3.udpApp[0]  rcvdPk:vector(count)  ETV
attr interpolationmode  none
attr source  rcvdPk
attr title  "packets received, vector(count)"
vector 27  Topo.client2.udpApp[0]  sentPk:vector(packetBytes)  ETV
attr interpolationmode  none
attr source  sentPk
attr title  "packets sent, vector(packetBytes)"
vector 29  Topo.client2.udp  sentPk:vector(packetBytes)  ETV
attr interpolationmode  none
attr source  sentPk
attr title  "packets sent, vector(packetBytes)"
vector 30  Topo.client2.udp  sentPk:vector(count)  ETV
attr interpolationmode  none
attr source  sentPk
attr title  "packets sent, vector(count)"
vector 35  Topo.client2.networkLayer.arp  sentReq:vector  ETV
attr title  "ARP request sent, vector"
vector 49  Topo.client2.eth[0].encap  encapPk:vector(packetBytes)  ETV
attr interpolationmode  none
attr source  encapPk
attr title  "packets encapsulated, vector(packetBytes)"
vector 45  Topo.client2.eth[0].mac  rxPkFromHL:vector(packetBytes)  ETV
attr interpolationmode  none
attr source  rxPkFromHL
attr title  "packet bytes from higher layer, vector(packetBytes)"
vector 40  Topo.client2.eth[0].mac  txPk:vector(packetBytes)  ETV
attr interpolationmode  none
attr source  txPk
attr title  "packets transmitted, vector(packetBytes)"
vector 194  Topo.s1.etherMAC[1]  rxPkOk:vector(packetBytes)  ETV
attr interpolationmode  none
attr source  rxPkOk
attr title  "packets received OK, vector(packetBytes)"
vector 195  Topo.s1.etherMAC[1]  passedUpPk:vector(packetBytes)  ETV
attr interpolationmode  none
attr source  packetSentToUpper
attr title  "packets passed to higher layer, vector(packetBytes)"
vector 140  Topo.server2.networkLayer.arp  sentReply:vector  ETV
attr title  "ARP replies sent, vector"
vector 153  Topo.server2.eth[0].encap  encapPk:vector(packetBytes)  ETV
attr interpolationmode  none
attr source  encapPk
attr title  "packets encapsulated, vector(packetBytes)"
vector 149  Topo.server2.eth[0].mac  rxPkFromHL:vector(packetBytes)  ETV
attr interpolationmode  none
attr source  rxPkFromHL
attr title  "packet bytes from higher layer, vector(packetBytes)"
vector 144  Topo.server2.eth[0].mac  txPk:vector(packetBytes)  ETV
attr interpolationmode  none
attr source  txPk
attr title  "packets transmitted, vector(packetBytes)"
vector 238  Topo.s1.etherMAC[5]  rxPkOk:vector(packetBytes)  ETV
attr interpolationmode  none
attr source  rxPkOk
attr title  "packets received OK, vector(packetBytes)"
vector 239  Topo.s1.etherMAC[5]  passedUpPk:vector(packetBytes)  ETV
attr interpolationmode  none
attr source  packetSentToUpper
attr title  "packets passed to higher layer, vector(packetBytes)"
vector 135  Topo.server2.udp  rcvdPk:vector(packetBytes)  ETV
attr interpolationmode  none
attr source  rcvdPk
attr title  "packets received, vector(packetBytes)"
vector 136  Topo.server2.udp  passedUpPk:vector(count)  ETV
attr interpolationmode  none
attr title  "packets passed up, vector(count)"
vector 130  Topo.server2.udpApp[0]  rcvdPk:vector(packetBytes)  ETV
attr interpolationmode  none
attr source  rcvdPk
attr title  "packets received, vector(packetBytes)"
vector 131  Topo.server2.udpApp[0]  rcvdPk:vector(count)  ETV
attr interpolationmode  none
attr source  rcvdPk
attr title  "packets received, vector(count)"
vector 158  Topo.server3.udpApp[0]  rcvdAppPkt:vector  ETV
attr interpolationmode  none
attr source  rcvdAppPkt
attr title  "packets received during sec, vector"
vector 106  Topo.server1.udpApp[0]  rcvdAppPkt:vector  ETV
attr interpolationmode  none
attr source  rcvdAppPkt
attr title  "packets received during sec, vector"
vector 132  Topo.server2.udpApp[0]  rcvdAppPkt:vector  ETV
attr interpolationmode  none
attr source  rcvdAppPkt
attr title  "packets received during sec, vector"
vector 53  Topo.client3.udpApp[0]  sentPk:vector(packetBytes)  ETV
attr interpolationmode  none
attr source  sentPk
attr title  "packets sent, vector(packetBytes)"
vector 55  Topo.client3.udp  sentPk:vector(packetBytes)  ETV
attr interpolationmode  none
attr source  sentPk
attr title  "packets sent, vector(packetBytes)"
vector 56  Topo.client3.udp  sentPk:vector(count)  ETV
attr interpolationmode  none
attr source  sentPk
attr title  "packets sent, vector(count)"
vector 61  Topo.client3.networkLayer.arp  sentReq:vector  ETV
attr title  "ARP request sent, vector"
vector 75  Topo.client3.eth[0].encap  encapPk:vector(packetBytes)  ETV
attr interpolationmode  none
attr source  encapPk
attr title  "packets encapsulated, vector(packetBytes)"
vector 71  Topo.client3.eth[0].mac  rxPkFromHL:vector(packetBytes)  ETV
attr interpolationmode  none
attr source  rxPkFromHL
attr title  "packet bytes from higher layer, vector(packetBytes)"
vector 66  Topo.client3.eth[0].mac  txPk:vector(packetBytes)  ETV
attr interpolationmode  none
attr source  txPk
attr title  "packets transmitted, vector(packetBytes)"
vector 205  Topo.s1.etherMAC[2]  rxPkOk:vector(packetBytes)  ETV
attr interpolationmode  none
attr source  rxPkOk
attr title  "packets received OK, vector(packetBytes)"
vector 206  Topo.s1.etherMAC[2]  passedUpPk:vector(packetBytes)  ETV
attr interpolationmode  none
attr source  packetSentToUpper
attr title  "packets passed to higher layer, vector(packetBytes)"
259	55	0	1
266	59	0	64
266	80	0.00001352	64
266	108	0.00002704	64
266	144	0.00004056	64
266	148	0.00004056	64
266	205	0.10000676	123
266	264	0.100036439999	64
266	332	0.100049959999	123
266	381	0.100074919998	64
266	411	0.100093159998	64
266	451	0.100205239998	594
266	452	0.100205239998	594
266	453	0.100205239998	283
266	559	0.100341239995	64
266	580	0.100390359994	64
266	601	0.100439479993	64
266	626	0.100463719992	64
266	678	0.20000676	123
266	737	0.200036439999	64
266	805	0.200049959999	123
266	854	0.200074919998	64
266	884	0.200093159998	64
266	933	0.200205239998	594
266	934	0.200205239998	594
266	935	0.200205239998	283
266	1051	0.200341239995	64
266	1072	0.200390359994	64
266	1093	0.200439479993	64
266	1118	0.200463719992	64
266	1291	0.60000676	123
266	1350	0.600036439999	64
266	1418	0.600049959999	123
266	1467	0.600074919998	64
266	1497	0.600093159998	64
266	1555	0.600205239998	594
266	1556	0.600205239998	594
266	1557	0.600205239998	283
266	1683	0.600341239995	64
266	1704	0.600390359994	64
266	1725	0.600439479993	64
266	1750	0.600463719992	64
266	2399	2.00000676	123
266	2458	2.000036439999	64
266	2526	2.000049959999	123
266	2575	2.000074919998	64
266	2605	2.000093159998	64
266	2663	2.000205239998	594
266	2664	2.000205239998	594
266	2665	2.000205239998	283
266	2791	2.000341239995	64
266	2812	2.000390359994	64
266	2833	2.000439479993	64
266	2858	2.000463719992	64
262	73	0.00001352	64
262	96	0.00002704	64
262	129	0.00004056	64
262	175	0.000060799999	64
262	232	0.100025	64
262	240	0.100036439999	123
262	361	0.100068199999	64
262	369	0.100074919998	64
262	397	0.100093159998	123
262	470	0.100261159998	64
262	491	0.100310279997	64
262	539	0.100334519996	64
262	547	0.100341239995	64
262	570	0.100390359994	594
262	591	0.100439479993	594
262	612	0.100463719992	283
262	705	0.200025	64
262	713	0.200036439999	123
262	834	0.200068199999	64
262	842	0.200074919998	64
262	870	0.200093159998	123
262	962	0.200261159998	64
262	983	0.200310279997	64
262	1031	0.200334519996	64
262	1039	0.200341239995	64
262	1062	0.200390359994	594
262	1083	0.200439479993	594
262	1104	0.200463719992	283
262	1318	0.600025	64
262	1326	0.600036439999	123
262	1447	0.600068199999	64
262	1455	0.600074919998	64
262	1483	0.600093159998	123
262	1594	0.600261159998	64
262	1615	0.600310279997	64
262	1663	0.600334519996	64
262	1671	0.600341239995	64
262	1694	0.600390359994	594
262	1715	0.600439479993	594
262	1736	0.600463719992	283
262	2426	2.000025	64
262	2434	2.000036439999	123
262	2555	2.000068199999	64
262	2563	2.000074919998	64
262	2591	2.000093159998	123
262	2702	2.000261159998	64
262	2723	2.000310279997	64
262	2771	2.000334519996	64
262	2779	2.000341239995	64
262	2802	2.000390359994	594
262	2823	2.000439479993	594
262	2844	2.000463719992	283
261	60	0.00000576	64
261	81	0.00001928	64
261	109	0.0000328	64
261	149	0.00004632	64
261	157	0.000053039999	64
261	207	0.10001724	123
261	271	0.100042199999	64
261	334	0.100060439999	123
261	382	0.100080679998	64
261	413	0.100098919998	64
261	455	0.100253399998	594
261	476	0.100302519997	594
261	497	0.100326759996	283
261	560	0.100346999995	64
261	581	0.100396119994	64
261	602	0.100445239993	64
261	627	0.100469479992	64
261	680	0.20001724	123
261	744	0.200042199999	64
261	807	0.200060439999	123
261	855	0.200080679998	64
261	886	0.200098919998	64
261	947	0.200253399998	594
261	968	0.200302519997	594
261	989	0.200326759996	283
261	1052	0.200346999995	64
261	1073	0.200396119994	64
261	1094	0.200445239993	64
261	1119	0.200469479992	64
261	1293	0.60001724	123
261	1357	0.600042199999	64
261	1420	0.600060439999	123
261	1468	0.600080679998	64
261	1499	0.600098919998	64
261	1579	0.600253399998	594
261	1600	0.600302519997	594
261	1621	0.600326759996	283
261	1684	0.600346999995	64
261	1705	0.600396119994	64
261	1726	0.600445239993	64
261	1751	0.600469479992	64
261	2401	2.00001724	123
261	2465	2.000042199999	64
261	2528	2.000060439999	123
261	2576	2.000080679998	64
261	2607	2.000098919998	64
261	2687	2.000253399998	594
261	2708	2.000302519997	594
261	2729	2.000326759996	283
261	2792	2.000346999995	64
261	2813	2.000396119994	64
261	2834	2.000445239993	64
261	2859	2.000469479992	64
263	73	0.00001352	64
263	96	0.00002704	64
263	129	0.00004056	64
263	175	0.000060799999	64
263	232	0.100025	64
263	240	0.100036439999	123
263	361	0.100068199999	64
263	369	0.100074919998	64
263	397	0.100093159998	123
263	470	0.100261159998	64
263	491	0.100310279997	64
263	539	0.100334519996	64
263	547	0.100341239995	64
263	570	0.100390359994	594
263	591	0.100439479993	594
263	612	0.100463719992	283
263	705	0.200025	64
263	713	0.200036439999	123
263	834	0.200068199999	64
263	842	0.200074919998	64
263	870	0.200093159998	123
263	962	0.200261159998	64
263	983	0.200310279997	64
263	1031	0.200334519996	64
263	1039	0.200341239995	64
263	1062	0.200390359994	594
263	1083	0.200439479993	594
263	1104	0.200463719992	283
263	1318	0.600025	64
263	1326	0.600036439999	123
263	1447	0.600068199999	64
263	1455	0.600074919998	64
263	1483	0.600093159998	123
263	1594	0.600261159998	64
263	1615	0.600310279997	64
263	1663	0.600334519996	64
263	1671	0.600341239995	64
263	1694	0.600390359994	594
263	1715	0.600439479993	594
263	1736	0.600463719992	283
263	2426	2.000025	64
263	2434	2.000036439999	123
263	2555	2.000068199999	64
263	2563	2.000074919998	64
263	2591	2.000093159998	123
263	2702	2.000261159998	64
263	2723	2.000310279997	64
263	2771	2.000334519996	64
263	2779	2.000341239995	64
263	2802	2.000390359994	594
263	2823	2.000439479993	594
263	2844	2.000463719992	283
271	74	0.00001352	28
271	97	0.00002704	44
271	130	0.00004056	41
271	176	0.000060799999	40
271	233	0.100025	40
271	241	0.100036439999	105
271	362	0.100068199999	40
271	370	0.100074919998	41
271	398	0.100093159998	105
271	471	0.100261159998	40
271	492	0.100310279997	40
271	540	0.100334519996	40
271	548	0.100341239995	41
271	571	0.100390359994	576
271	592	0.100439479993	576
271	613	0.100463719992	265
271	706	0.200025	40
271	714	0.200036439999	105
271	835	0.200068199999	40
271	843	0.200074919998	41
271	871	0.200093159998	105
271	963	0.200261159998	40
271	984	0.200310279997	40
271	1032	0.200334519996	40
271	1040	0.200341239995	41
271	1063	0.200390359994	576
271	1084	0.200439479993	576
271	1105	0.200463719992	265
271	1319	0.600025	40
271	1327	0.600036439999	105
271	1448	0.600068199999	40
271	1456	0.600074919998	41
271	1484	0.600093159998	105
271	1595	0.600261159998	40
271	1616	0.600310279997	40
271	1664	0.600334519996	40
271	1672	0.600341239995	41
271	1695	0.600390359994	576
271	1716	0.600439479993	576
271	1737	0.600463719992	265
271	2427	2.000025	40
271	2435	2.000036439999	105
271	2556	2.000068199999	40
271	2564	2.000074919998	41
271	2592	2.000093159998	105
271	2703	2.000261159998	40
271	2724	2.000310279997	40
271	2772	2.000334519996	40
271	2780	2.000341239995	41
271	2803	2.000390359994	576
271	2824	2.000439479993	576
271	2845	2.000463719992	265
270	58	0	28
270	79	0.00001352	44
270	107	0.00002704	40
270	142	0.00004056	40
270	147	0.00004056	41
270	204	0.10000676	105
270	263	0.100036439999	40
270	331	0.100049959999	105
270	380	0.100074919998	40
270	410	0.100093159998	40
270	448	0.100205239998	576
270	449	0.100205239998	576
270	450	0.100205239998	265
270	558	0.100341239995	40
270	579	0.100390359994	40
270	600	0.100439479993	40
270	625	0.100463719992	40
270	677	0.20000676	105
270	736	0.200036439999	40
270	804	0.200049959999	105
270	853	0.200074919998	40
270	883	0.200093159998	40
270	930	0.200205239998	576
270	931	0.200205239998	576
270	932	0.200205239998	265
270	1050	0.200341239995	40
270	1071	0.200390359994	40
270	1092	0.200439479993	40
270	1117	0.200463719992	40
270	1290	0.60000676	105
270	1349	0.600036439999	40
270	1417	0.600049959999	105
270	1466	0.600074919998	40
270	1496	0.600093159998	40
270	1552	0.600205239998	576
270	1553	0.600205239998	576
270	1554	0.600205239998	265
270	1682	0.600341239995	40
270	1703	0.600390359994	40
270	1724	0.600439479993	40
270	1749	0.600463719992	40
270	2398	2.00000676	105
270	2457	2.000036439999	40
270	2525	2.000049959999	105
270	2574	2.000074919998	40
270	2604	2.000093159998	40
270	2660	2.000205239998	576
270	2661	2.000205239998	576
270	2662	2.000205239998	265
270	2790	2.000341239995	40
270	2811	2.000390359994	40
270	2832	2.000439479993	40
270	2857	2.000463719992	40
187	409	0.100093159998	64
187	730	0.200036439999	64