version 2
run disable-0-20161002-13:04:47-32596
attr configname disable
attr datetime 20161002-13:04:47
attr experiment disable
attr inifile omnetpp.ini
attr iterationvars ""
attr iterationvars2 $repetition=0
attr measurement ""
attr network Topo
attr processid 32596
attr repetition 0
attr replication #0
attr resultdir results
attr runnumber 0
attr seedset 0

vector 330  Topo.s1.tcp  tcpRcvQueueBytes  ETV
vector 317  Topo.s1.tcp  "advertised window"  ETV
vector 316  Topo.s1.tcp  "receive window"  ETV
vector 319  Topo.s1.tcp  "sent ack"  ETV
vector 259  Topo.s1.networkLayer.arp  sentReq:vector  ETV
attr title  "ARP request sent, vector"
vector 270  Topo.s1.eth[0].encap  encapPk:vector(packetBytes)  ETV
attr interpolationmode  none
attr source  encapPk
attr title  "packets encapsulated, vector(packetBytes)"
vector 266  Topo.s1.eth[0].mac  rxPkFromHL:vector(packetBytes)  ETV
attr interpolationmode  none
attr source  rxPkFromHL
attr title  "packet bytes from higher layer, vector(packetBytes)"
vector 261  Topo.s1.eth[0].mac  txPk:vector(packetBytes)  ETV
attr interpolationmode  none
attr source  txPk
attr title  "packets transmitted, vector(packetBytes)"
vector 280  Topo.controller.eth[0].mac  rxPkOk:vector(packetBytes)  ETV
attr interpolationmode  none
attr source  rxPkOk
attr title  "packets received OK, vector(packetBytes)"
vector 281  Topo.controller.eth[0].mac  passedUpPk:vector(packetBytes)  ETV
attr interpolationmode  none
attr source  packetSentToUpper
attr title  "packets passed to higher layer, vector(packetBytes)"
vector 289  Topo.controller.eth[0].encap  decapPk:vector(packetBytes)  ETV
attr interpolationmode  none
attr source  decapPk
attr title  "packets decapsulated, vector(packetBytes)"
vector 275  Topo.controller.networkLayer.arp  sentReply:vector  ETV
attr title  "ARP replies sent, vector"
vector 288  Topo.controller.eth[0].encap  encapPk:vector(packetBytes)  ETV
attr interpolationmode  none
attr source  encapPk
attr title  "packets encapsulated, vector(packetBytes)"
vector 284  Topo.controller.eth[0].mac  rxPkFromHL:vector(packetBytes)  ETV
attr interpolationmode  none
attr source  rxPkFromHL
attr title  "packet bytes from higher layer, vector(packetBytes)"
vector 279  Topo.controller.eth[0].mac  txPk:vector(packetBytes)  ETV
attr interpolationmode  none
attr source  txPk
attr title  "packets transmitted, vector(packetBytes)"
vector 262  Topo.s1.eth[0].mac  rxPkOk:vector(packetBytes)  ETV
attr interpolationmode  none
attr source  rxPkOk
attr title  "packets received OK, vector(packetBytes)"
vector 263  Topo.s1.eth[0].mac  passedUpPk:vector(packetBytes)  ETV
attr interpolationmode  none
attr source  packetSentToUpper
attr title  "packets passed to higher layer, vector(packetBytes)"
vector 271  Topo.s1.eth[0].encap  decapPk:vector(packetBytes)  ETV
attr interpolationmode  none
attr source  decapPk
attr title  "packets decapsulated, vector(packetBytes)"
vector 296  Topo.controller.tcp  "rcvd seq"  ETV
vector 297  Topo.controller.tcp  "rcvd ack"  ETV
vector 293  Topo.controller.tcp  "advertised window"  ETV
vector 291  Topo.controller.tcp  "send window"  ETV
vector 306  Topo.controller.tcp  tcpRcvQueueBytes  ETV
vector 292  Topo.controller.tcp  "receive window"  ETV
vector 295  Topo.controller.tcp  "sent ack"  ETV
vector 320  Topo.s1.tcp  "rcvd seq"  ETV
vector 321  Topo.s1.tcp  "rcvd ack"  ETV
vector 315  Topo.s1.tcp  "send window"  ETV
vector 298  Topo.controller.tcp  "unacked bytes"  ETV
vector 294  Topo.controller.tcp  "sent seq"  ETV
vector 323  Topo.s1.tcp  "rcvd dupAcks"  ETV
vector 318  Topo.s1.tcp  "sent seq"  ETV
vector 322  Topo.s1.tcp  "unacked bytes"  ETV
vector 310  Topo.controller.tcp  "measured RTT"  ETV
vector 311  Topo.controller.tcp  "smoothed RTT"  ETV
vector 312  Topo.controller.tcp  RTTVAR  ETV
vector 313  Topo.controller.tcp  RTO  ETV
vector 308  Topo.controller.tcp  cwnd  ETV
vector 299  Topo.controller.tcp  "rcvd dupAcks"  ETV
vector 334  Topo.s1.tcp  "measured RTT"  ETV
vector 335  Topo.s1.tcp  "smoothed RTT"  ETV
vector 336  Topo.s1.tcp  RTTVAR  ETV
vector 337  Topo.s1.tcp  RTO  ETV
vector 332  Topo.s1.tcp  cwnd  ETV
vector 1  Topo.client1.udpApp[0]  sentPk:vector(packetBytes)  ETV
attr interpolationmode  none
attr source  sentPk
attr title  "packets sent, vector(packetBytes)"
vector 3  Topo.client1.udp  sentPk:vector(packetBytes)  ETV
attr interpolationmode  none
attr source  sentPk
attr title  "packets sent, vector(packetBytes)"
vector 4  Topo.client1.udp  sentPk:vector(count)  ETV
attr interpolationmode  none
attr source  sentPk
attr title  "packets sent, vector(count)"
vector 9  Topo.client1.networkLayer.arp  sentReq:vector  ETV
attr title  "ARP request sent, vector"
vector 23  Topo.client1.eth[0].encap  encapPk:vector(packetBytes)  ETV
attr interpolationmode  none
attr source  encapPk
attr title  "packets encapsulated, vector(packetBytes)"
vector 19  Topo.client1.eth[0].mac  rxPkFromHL:vector(packetBytes)  ETV
attr interpolationmode  none
attr source  rxPkFromHL
attr title  "packet bytes from higher layer, vector(packetBytes)"
vector 14  Topo.client1.eth[0].mac  txPk:vector(packetBytes)  ETV
attr interpolationmode  none
attr source  txPk
attr title  "packets transmitted, vector(packetBytes)"
vector 183  Topo.s1.etherMAC[0]  rxPkOk:vector(packetBytes)  ETV
attr interpolationmode  none
attr source  rxPkOk
attr title  "packets received OK, vector(packetBytes)"
vector 184  Topo.s1.etherMAC[0]  passedUpPk:vector(packetBytes)  ETV
attr interpolationmode  none
attr source  packetSentToUpper
attr title  "packets passed to higher layer, vector(packetBytes)"
vector 198  Topo.s1.etherMAC[1]  rxPkFromHL:vector(packetBytes)  ETV
attr interpolationmode  none
attr source  rxPkFromHL
attr title  "packet bytes from higher layer, vector(packetBytes)"
vector 209  Topo.s1.etherMAC[2]  rxPkFromHL:vector(packetBytes)  ETV
attr interpolationmode  none
attr source  rxPkFromHL
attr title  "packet bytes from higher layer, vector(packetBytes)"
vector 220  Topo.s1.etherMAC[3]  rxPkFromHL:vector(packetBytes)  ETV
attr interpolationmode  none
attr source  rxPkFromHL
attr title  "packet bytes from higher layer, vector(packetBytes)"
vector 231  Topo.s1.etherMAC[4]  rxPkFromHL:vector(packetBytes)  ETV
attr interpolationmode  none
attr source  rxPkFromHL
attr title  "packet bytes from higher layer, vector(packetBytes)"
vector 242  Topo.s1.etherMAC[5]  rxPkFromHL:vector(packetBytes)  ETV
attr interpolationmode  none
attr source  rxPkFromHL
attr title  "packet bytes from higher layer, vector(packetBytes)"
vector 253  Topo.s1.etherMAC[6]  rxPkFromHL:vector(packetBytes)  ETV
attr interpolationmode  none
attr source  rxPkFromHL
attr title  "packet bytes from higher layer, vector(packetBytes)"
vector 193  Topo.s1.etherMAC[1]  txPk:vector(packetBytes)  ETV
attr interpolationmode  none
attr source  txPk
attr title  "packets transmitted, vector(packetBytes)"
vector 204  Topo.s1.etherMAC[2]  txPk:vector(packetBytes)  ETV
attr interpolationmode  none
attr source  txPk
attr title  "packets transmitted, vector(packetBytes)"
vector 215  Topo.s1.etherMAC[3]  txPk:vector(packetBytes)  ETV
attr interpolationmode  none
attr source  txPk
attr title  "packets transmitted, vector(packetBytes)"
vector 226  Topo.s1.etherMAC[4]  txPk:vector(packetBytes)  ETV
attr interpolationmode  none
attr source  txPk
attr title  "packets transmitted, vector(packetBytes)"
vector 237  Topo.s1.etherMAC[5]  txPk:vector(packetBytes)  ETV
attr interpolationmode  none
attr source  txPk
attr title  "packets transmitted, vector(packetBytes)"
vector 248  Topo.s1.etherMAC[6]  txPk:vector(packetBytes)  ETV
attr interpolationmode  none
attr source  txPk
attr title  "packets transmitted, vector(packetBytes)"
vector 41  Topo.client2.eth[0].mac  rxPkOk:vector(packetBytes)  ETV
attr interpolationmode  none
attr source  rxPkOk
attr title  "packets received OK, vector(packetBytes)"
vector 42  Topo.client2.eth[0].mac  passedUpPk:vector(packetBytes)  ETV
attr interpolationmode  none
attr source  packetSentToUpper
attr title  "packets passed to higher layer, vector(packetBytes)"
vector 67  Topo.client3.eth[0].mac  rxPkOk:vector(packetBytes)  ETV
attr interpolationmode  none
attr source  rxPkOk
attr title  "packets received OK, vector(packetBytes)"
vector 68  Topo.client3.eth[0].mac  passedUpPk:vector(packetBytes)  ETV
attr interpolationmode  none
attr source  packetSentToUpper
attr title  "packets passed to higher layer, vector(packetBytes)"
vector 93  Topo.client4.eth[0].mac  rxPkOk:vector(packetBytes)  ETV
attr interpolationmode  none
attr source  rxPkOk
attr title  "packets received OK, vector(packetBytes)"
vector 94  Topo.client4.eth[0].mac  passedUpPk:vector(packetBytes)  ETV
attr interpolationmode  none
attr source  packetSentToUpper
attr title  "packets passed to higher layer, vector(packetBytes)"
vector 119  Topo.server1.eth[0].mac  rxPkOk:vector(packetBytes)  ETV
attr interpolationmode  none
attr source  rxPkOk
attr title  "packets received OK, vector(packetBytes)"
vector 120  Topo.server1.eth[0].mac  passedUpPk:vector(packetBytes)  ETV
attr interpolationmode  none
attr source  packetSentToUpper
attr title  "packets passed to higher layer, vector(packetBytes)"
vector 145  Topo.server2.eth[0].mac  rxPkOk:vector(packetBytes)  ETV
attr interpolationmode  none
attr source  rxPkOk
attr title  "packets received OK, vector(packetBytes)"
vector 146  Topo.server2.eth[0].mac  passedUpPk:vector(packetBytes)  ETV
attr interpolationmode  none
attr source  packetSentToUpper
attr title  "packets passed to higher layer, vector(packetBytes)"
vector 171  Topo.server3.eth[0].mac  rxPkOk:vector(packetBytes)  ETV
attr interpolationmode  none
attr source  rxPkOk
attr title  "packets received OK, vector(packetBytes)"
vector 172  Topo.server3.eth[0].mac  passedUpPk:vector(packetBytes)  ETV
attr interpolationmode  none
attr source  packetSentToUpper
attr title  "packets passed to higher layer, vector(packetBytes)"
vector 50  Topo.client2.eth[0].encap  decapPk:vector(packetBytes)  ETV
attr interpolationmode  none
attr source  decapPk
attr title  "packets decapsulated, vector(packetBytes)"
vector 76  Topo.client3.eth[0].encap  decapPk:vector(packetBytes)  ETV
attr interpolationmode  none
attr source  decapPk
attr title  "packets decapsulated, vector(packetBytes)"
vector 102  Topo.client4.eth[0].encap  decapPk:vector(packetBytes)  ETV
attr interpolationmode  none
attr source  decapPk
attr title  "packets decapsulated, vector(packetBytes)"
vector 128  Topo.server1.eth[0].encap  decapPk:vector(packetBytes)  ETV
attr interpolationmode  none
attr source  decapPk
attr title  "packets decapsulated, vector(packetBytes)"
vector 154  Topo.server2.eth[0].encap  decapPk:vector(packetBytes)  ETV
attr interpolationmode  none
attr source  decapPk
attr title  "packets decapsulated, vector(packetBytes)"
vector 180  Topo.server3.eth[0].encap  decapPk:vector(packetBytes)  ETV
attr interpolationmode  none
attr source  decapPk
attr title  "packets decapsulated, vector(packetBytes)"
vector 114  Topo.server1.networkLayer.arp  sentReply:vector  ETV
attr title  "ARP replies sent, vector"
vector 127  Topo.server1.eth[0].encap  encapPk:vector(packetBytes)  ETV
attr interpolationmode  none
attr source  encapPk
attr title  "packets encapsulated, vector(packetBytes)"
vector 123  Topo.server1.eth[0].mac  rxPkFromHL:vector(packetBytes)  ETV
attr interpolationmode  none
attr source  rxPkFromHL
attr title  "packet bytes from higher layer, vector(packetBytes)"
vector 118  Topo.server1.eth[0].mac  txPk:vector(packetBytes)  ETV
attr interpolationmode  none
attr source  txPk
attr title  "packets transmitted, vector(packetBytes)"
vector 227  Topo.s1.etherMAC[4]  rxPkOk:vector(packetBytes)  ETV
attr interpolationmode  none
attr source  rxPkOk
attr title  "packets received OK, vector(packetBytes)"
vector 228  Topo.s1.etherMAC[4]  passedUpPk:vector(packetBytes)  ETV
attr interpolationmode  none
attr source  packetSentToUpper
attr title  "packets passed to higher layer, vector(packetBytes)"
vector 187  Topo.s1.etherMAC[0]  rxPkFromHL:vector(packetBytes)  ETV
attr interpolationmode  none
attr source  rxPkFromHL
attr title  "packet bytes from higher layer, vector(packetBytes)"
vector 182  Topo.s1.etherMAC[0]  txPk:vector(packetBytes)  ETV
attr interpolationmode  none
attr source  txPk
attr title  "packets transmitted, vector(packetBytes)"
vector 15  Topo.client1.eth[0].mac  rxPkOk:vector(packetBytes)  ETV
attr interpolationmode  none
attr source  rxPkOk
attr title  "packets received OK, vector(packetBytes)"
vector 16  Topo.client1.eth[0].mac  passedUpPk:vector(packetBytes)  ETV
attr interpolationmode  none
attr source  packetSentToUpper
attr title  "packets passed to higher layer, vector(packetBytes)"
vector 24  Topo.client1.eth[0].encap  decapPk:vector(packetBytes)  ETV
attr interpolationmode  none
attr source  decapPk
attr title  "packets decapsulated, vector(packetBytes)"
vector 109  Topo.server1.udp  rcvdPk:vector(packetBytes)  ETV
attr interpolationmode  none
attr source  rcvdPk
attr title  "packets received, vector(packetBytes)"
vector 110  Topo.server1.udp  passedUpPk:vector(count)  ETV
attr interpolationmode  none
attr title  "packets passed up, vector(count)"
vector 104  Topo.server1.udpApp[0]  rcvdPk:vector(packetBytes)  ETV
attr interpolationmode  none
attr source  rcvdPk
attr title  "packets received, vector(packetBytes)"
vector 105  Topo.server1.udpApp[0]  rcvdPk:vector(count)  ETV
attr interpolationmode  none
attr source  rcvdPk
attr title  "packets received, vector(count)"
vector 79  Topo.client4.udpApp[0]  sentPk:vector(packetBytes)  ETV
attr interpolationmode  none
attr source  sentPk
attr title  "packets sent, vector(packetBytes)"
vector 81  Topo.client4.udp  sentPk:vector(packetBytes)  ETV
attr interpolationmode  none
attr source  sentPk
attr title  "packets sent, vector(packetBytes)"
vector 82  Topo.client4.udp  sentPk:vector(count)  ETV
attr interpolationmode  none
attr source  sentPk
attr title  "packets sent, vector(count)"
vector 87  Topo.client4.networkLayer.arp  sentReq:vector  ETV
attr title  "ARP request sent, vector"
vector 101  Topo.client4.eth[0].encap  encapPk:vector(packetBytes)  ETV
attr interpolationmode  none
attr source  encapPk
attr title  "packets encapsulated, vector(packetBytes)"
vector 97  Topo.client4.eth[0].mac  rxPkFromHL:vector(packetBytes)  ETV
attr interpolationmode  none
attr source  rxPkFromHL
attr title  "packet bytes from higher layer, vector(packetBytes)"
vector 92  Topo.client4.eth[0].mac  txPk:vector(packetBytes)  ETV
attr interpolationmode  none
attr source  txPk
attr title  "packets transmitted, vector(packetBytes)"
vector 216  Topo.s1.etherMAC[3]  rxPkOk:vector(packetBytes)  ETV
attr interpolationmode  none
attr source  rxPkOk
attr title  "packets received OK, vector(packetBytes)"
vector 217  Topo.s1.etherMAC[3]  passedUpPk:vector(packetBytes)  ETV
attr interpolationmode  none
attr source  packetSentToUpper
attr title  "packets passed to higher layer, vector(packetBytes)"
vector 166  Topo.server3.networkLayer.arp  sentReply:vector  ETV
attr title  "ARP replies sent, vector"
vector 179  Topo.server3.eth[0].encap  encapPk:vector(packetBytes)  ETV
attr interpolationmode  none
attr source  encapPk
attr title  "packets encapsulated, vector(packetBytes)"
vector 175  Topo.server3.eth[0].mac  rxPkFromHL:vector(packetBytes)  ETV
attr interpolationmode  none
attr source  rxPkFromHL
attr title  "packet bytes from higher layer, vector(packetBytes)"
vector 170  Topo.server3.eth[0].mac  txPk:vector(packetBytes)  ETV
attr interpolationmode  none
attr source  txPk
attr title  "packets transmitted, vector(packetBytes)"
vector 249  Topo.s1.etherMAC[6]  rxPkOk:vector(packetBytes)  ETV
attr interpolationmode  none
attr source  rxPkOk
attr title  "packets received OK, vector(packetBytes)"
vector 250  Topo.s1.etherMAC[6]  passedUpPk:vector(packetBytes)  ETV
attr interpolationmode  none
attr source  packetSentToUpper
attr title  "packets passed to higher layer, vector(packetBytes)"
vector 161  Topo.server3.udp  rcvdPk:vector(packetBytes)  ETV
attr interpolationmode  none
attr source  rcvdPk
attr title  "packets received, vector(packetBytes)"
vector 162  Topo.server3.udp  passedUpPk:vector(count)  ETV
attr interpolationmode  none
attr title  "packets passed up, vector(count)"
vector 156  Topo.server3.udpApp[0]  rcvdPk:vector(packetBytes)  ETV
attr interpolationmode  none
attr source  rcvdPk
attr title  "packets received, vector(packetBytes)"
vector 157  Topo.server3.udpApp[0]  rcvdPk:vector(count)  ETV
attr interpolationmode  none
attr source  rcvdPk
attr title  "packets received, vector(count)"
vector 53  Topo.client3.udpApp[0]  sentPk:vector(packetBytes)  ETV
attr interpolationmode  none
attr source  sentPk
attr title  "packets sent, vector(packetBytes)"
vector 55  Topo.client3.udp  sentPk:vector(packetBytes)  ETV
attr interpolationmode  none
attr source  sentPk
attr title  "packets sent, vector(packetBytes)"
vector 56  Topo.client3.udp  sentPk:vector(count)  ETV
attr interpolationmode  none
attr source  sentPk
attr title  "packets sent, vector(count)"
vector 61  Topo.client3.networkLayer.arp  sentReq:vector  ETV
attr title  "ARP request sent, vector"
vector 75  Topo.client3.eth[0].encap  encapPk:vector(packetBytes)  ETV
attr interpolationmode  none
attr source  encapPk
attr title  "packets encapsulated, vector(packetBytes)"
vector 71  Topo.client3.eth[0].mac  rxPkFromHL:vector(packetBytes)  ETV
attr interpolationmode  none
attr source  rxPkFromHL
attr title  "packet bytes from higher layer, vector(packetBytes)"
vector 66  Topo.client3.eth[0].mac  txPk:vector(packetBytes)  ETV
attr interpolationmode  none
attr source  txPk
attr title  "packets transmitted, vector(packetBytes)"
vector 205  Topo.s1.etherMAC[2]  rxPkOk:vector(packetBytes)  ETV
attr interpolationmode  none
attr source  rxPkOk
attr title  "packets received OK, vector(packetBytes)"
vector 206  Topo.s1.etherMAC[2]  passedUpPk:vector(packetBytes)  ETV
attr interpolationmode  none
attr source  packetSentToUpper
attr title  "packets passed to higher layer, vector(packetBytes)"
vector 140  Topo.server2.networkLayer.arp  sentReply:vector  ETV
attr title  "ARP replies sent, vector"
vector 153  Topo.server2.eth[0].encap  encapPk:vector(packetBytes)  ETV
attr interpolationmode  none
attr source  encapPk
attr title  "packets encapsulated, vector(packetBytes)"
vector 149  Topo.server2.eth[0].mac  rxPkFromHL:vector(packetBytes)  ETV
attr interpolationmode  none
attr source  rxPkFromHL
attr title  "packet bytes from higher layer, vector(packetBytes)"
vector 144  Topo.server2.eth[0].mac  txPk:vector(packetBytes)  ETV
attr interpolationmode  none
attr source  txPk
attr title  "packets transmitted, vector(packetBytes)"
vector 238  Topo.s1.etherMAC[5]  rxPkOk:vector(packetBytes)  ETV
attr interpolationmode  none
attr source  rxPkOk
attr title  "packets received OK, vector(packetBytes)"
vector 239  Topo.s1.etherMAC[5]  passedUpPk:vector(packetBytes)  ETV
attr interpolationmode  none
attr source  packetSentToUpper
attr title  "packets passed to higher layer, vector(packetBytes)"
vector 135  Topo.server2.udp  rcvdPk:vector(packetBytes)  ETV
attr interpolationmode  none
attr source  rcvdPk
attr title  "packets received, vector(packetBytes)"
vector 136  Topo.server2.udp  passedUpPk:vector(count)  ETV
attr interpolationmode  none
attr title  "packets passed up, vector(count)"
vector 130  Topo.server2.udpApp[0]  rcvdPk:vector(packetBytes)  ETV
attr interpolationmode  none
attr source  rcvdPk
attr title  "packets received, vector(packetBytes)"
vector 131  Topo.server2.udpApp[0]  rcvdPk:vector(count)  ETV
attr interpolationmode  none
attr source  rcvdPk
attr title  "packets received, vector(count)"
vector 27  Topo.client2.udpApp[0]  sentPk:vector(packetBytes)  ETV
attr interpolationmode  none
attr source  sentPk
attr title  "packets sent, vector(packetBytes)"
vector 29  Topo.client2.udp  sentPk:vector(packetBytes)  ETV
attr interpolationmode  none
attr source  sentPk
attr title  "packets sent, vector(packetBytes)"
vector 30  Topo.client2.udp  sentPk:vector(count)  ETV
attr interpolationmode  none
attr source  sentPk
attr title  "packets sent, vector(count)"
vector 35  Topo.client2.networkLayer.arp  sentReq:vector  ETV
attr title  "ARP request sent, vector"
vector 49  Topo.client2.eth[0].encap  encapPk:vector(packetBytes)  ETV
attr interpolationmode  none
attr source  encapPk
attr title  "packets encapsulated, vector(packetBytes)"
vector 45  Topo.client2.eth[0].mac  rxPkFromHL:vector(packetBytes)  ETV
attr interpolationmode  none
attr source  rxPkFromHL
attr title  "packet bytes from higher layer, vector(packetBytes)"
vector 40  Topo.client2.eth[0].mac  txPk:vector(packetBytes)  ETV
attr interpolationmode  none
attr source  txPk
attr title  "packets transmitted, vector(packetBytes)"
vector 194  Topo.s1.etherMAC[1]  rxPkOk:vector(packetBytes)  ETV
attr interpolationmode  none
attr source  rxPkOk
attr title  "packets received OK, vector(packetBytes)"
vector 195  Topo.s1.etherMAC[1]  passedUpPk:vector(packetBytes)  ETV
attr interpolationmode  none
attr source  packetSentToUpper
attr title  "packets passed to higher layer, vector(packetBytes)"
vector 158  Topo.server3.udpApp[0]  rcvdAppPkt:vector  ETV
attr interpolationmode  none
attr source  rcvdAppPkt
attr title  "packets received during sec, vector"
vector 106  Topo.server1.udpApp[0]  rcvdAppPkt:vector  ETV
attr interpolationmode  none
attr source  rcvdAppPkt
attr title  "packets received during sec, vector"
vector 132  Topo.server2.udpApp[0]  rcvdAppPkt:vector  ETV
attr interpolationmode  none
attr source  rcvdAppPkt
attr title  "packets received during sec, vector"
140	1245	0.300043199999	1
140	1820	0.600043199999	1
149	1252	0.300043199999	64
149	1827	0.600043199999	64
145	276	0.100043199999	64
145	738	0.200043199999	64
145	1217	0.300043199999	64
145	1584	0.300569039992	1296
145	1792	0.600043199999	64
145	1988	0.60021064	1296
145	2193	0.600569039992	1296
145	2315	0.90021064	1296
145	2479	1.20021064	1296
145	2505	1.200315919999	1296
145	2627	1.50021064	1296
145	2791	1.80021064	1296
145	2817	1.800315919999	1296
145	2939	2.10021064	1296
145	3103	2.40021064	1296
145	3129	2.400315919999	1296
145	3251	2.70021064	1296
145	3415	3.00021064	1296
145	3441	3.000315919999	1296
145	3563	3.30021064	1296
145	3727	3.60021064	1296
145	3753	3.600315919999	1296
145	3875	3.90021064	1296
145	4039	4.20021064	1296
145	4065	4.200315919999	1296
145	4187	4.50021064	1296
145	4351	4.80021064	1296
145	4377	4.800315919999	1296
145	4499	5.10021064	1296
145	4663	5.40021064	1296
145	4689	5.400315919999	1296
145	4811	5.70021064	1296
145	4975	6.00021064	1296
145	5001	6.000315919999	1296
145	5123	6.30021064	1296
145	5287	6.60021064	1296
145	5313	6.600315919999	1296
145	5435	6.90021064	1296
145	5599	7.20021064	1296
145	5625	7.200315919999	1296
145	5747	7.50021064	1296
145	5911	7.80021064	1296
145	5937	7.800315919999	1296
145	6059	8.10021064	1296
145	6223	8.40021064	1296
145	6249	8.400315919999	1296
145	6371	8.70021064	1296
145	6535	9.00021064	1296
145	6561	9.000315919999	1296
145	6683	9.30021064	1296
145	6847	9.60021064	1296
145	6873	9.600315919999	1296
145	6995	9.90021064	1296
145	7159	10.20021064	1296
145	7185	10.200315919999	1296
145	7307	10.50021064	1296
145	7471	10.80021064	1296
145	7497	10.800315919999	1296
145	7619	11.10021064	1296
145	7783	11.40021064	1296
145	7809	11.400315919999	1296
145	7931	11.70021064	1296
145	8095	12.00021064	1296
145	8121	12.000315919999	1296
145	8243	12.30021064	1296
145	8407	12.60021064	1296
145	8433	12.600315919999	1296
145	8555	12.90021064	1296
145	8719	13.20021064	1296
145	8745	13.200315919999	1296
145	8867	13.50021064	1296
145	9031	13.80021064	1296
145	9057	13.800315919999	1296
145	9179	14.10021064	1296
145	9343	14.40021064	1296
145	9369	14.400315919999	1296
145	9491	14.70021064	1296
145	9655	15.00021064	1296
145	9681	15.000315919999	1296
145	9803	15.30021064	1296
145	9967	15.60021064	1296
145	9993	15.600315919999	1296
145	10115	15.90021064	1296
145	10279	16.20021064	1296
145	10305	16.200315919999	1296
145	10427	16.50021064	1296
145	10591	16.80021064	1296
145	10617	16.800315919999	1296
145	10739	17.10021064	1296
145	10903	17.40021064	1296
145	10929	17.400315919999	1296
145	11051	17.70021064	1296
145	11215	18.00021064	1296
145	11241	18.000315919999	1296
145	11363	18.30021064	1296
145	11527	18.60021064	1296
145	11553	18.600315919999	1296
145	11675	18.90021064	1296
145	11839	19.20021064	1296
145	11865	19.200315919999	1296
145	11987	19.50021064	1296
145	12151	19.80021064	1296
145	12177	19.800315919999	1296
144	1254	0.300048959999	64
144	1829	0.600048959999	64
146	276	0.100043199999	64
146	738	0.200043199999	64
146	1217	0.300043199999	64
146	1584	0.300569039992	1296
146	1792	0.600043199999	64
146	1988	0.60021064	1296
146	2193	0.600569039992	1296
146	2315	0.90021064	1296
146	2479	1.20021064	1296
146	2505	1.200315919999	1296
146	2627	1.50021064	1296
146	2791	1.80021064	1296
146	2817	1.800315919999	1296
146	2939	2.10021064	1296
146	3103	2.40021064	1296
146	3129	2.400315919999	1296
146	3251	2.70021064	1296
146	3415	3.00021064	1296
146	3441	3.000315919999	1296
146	3563	3.30021064	1296
146	3727	3.60021064	1296
146	3753	3.600315919999	1296
146	3875	3.90021064	1296
146	4039	4.20021064	1296
146	4065	4.200315919999	1296
146	4187	4.50021064	1296
146	4351	4.80021064	1296
146	4377	4.800315919999	1296
146	4499	5.10021064	1296
146	4663	5.40021064	1296
146	4689	5.400315919999	1296
146	4811	5.70021064	1296
146	4975	6.00021064	1296
146	5001	6.000315919999	1296
146	5123	6.30021064	1296
146	5287	6.60021064	1296
146	5313	6.600315919999	1296
146	5435	6.90021064	1296
146	5599	7.20021064	1296
146	5625	7.200315919999	1296
146	5747	7.50021064	1296
146	5911	7.80021064	1296
146	5937	7.800315919999	1296
146	6059	8.10021064	1296
146	6223	8.40021064	1296
146	6249	8.400315919999	1296
146	6371	8.70021064	1296
146	6535	9.00021064	1296
146	6561	9.000315919999	1296
146	6683	9.30021064	1296
146	6847	9.60021064	1296
146	6873	9.600315919999	1296
146	6995	9.90021064	1296
146	7159	10.20021064	1296
146	7185	10.200315919999	1296
146	7307	10.50021064	1296
146	7471	10.80021064	1296
146	7497	10.800315919999	1296
146	7619	11.10021064	1296
146	7783	11.40021064	1296
146	7809	11.400315919999	1296
146	7931	11.70021064	1296
146	8095	12.00021064	1296
146	8121	12.000315919999	1296
146	8243	12.30021064	1296
146	8407	12.60021064	1296
146	8433	12.600315919999	1296
146	8555	12.90021064	1296
146	8719	13.20021064	1296
146	8745	13.200315919999	1296
146	8867	13.50021064	1296
146	9031	13.80021064	1296
146	9057	13.800315919999	1296
146	9179	14.10021064	1296
146	9343	14.40021064	1296
146	9369	14.400315919999	1296
146	9491	14.70021064	1296
146	9655	15.00021064	1296
146	9681	15.000315919999	1296
146	9803	15.30021064	1296
146	9967	15.60021064	1296
146	9993	15.600315919999	1296
146	10115	15.90021064	1296
146	10279	16.20021064	1296
146	10305	16.200315919999	1296
146	10427	16.50021064	1296
146	10591	16.80021064	1296
146	10617	16.800315919999	1296
146	10739	17.10021064	1296
146	10903	17.40021064	1296
146	10929	17.400315919999	1296
146	11051	17.70021064	1296
146	11215	18.00021064	1296
146	11241	18.000315919999	1296
146	11363	18.30021064	1296
146	11527	18.60021064	1296
146	11553	18.600315919999	1296
146	11675	18.90021064	1296
146	11839	19.20021064	1296
146	11865	19.200315919999	1296
146	11987	19.50021064	1296
146	12151	19.80021064	1296
146	12177	19.800315919999	1296
154	283	0.100043199999	28
154	745	0.200043199999	28
154	1224	0.300043199999	28
154	1585	0.300569039992	1278
154	1799	0.600043199999	28
154	1991	0.60021064	1278
154	2194	0.600569039992	1278
154	2317	0.90021064	1278
154	2482	1.20021064	1278
154	2506	1.200315919999	1278
154	2629	1.50021064	1278
154	2794	1.80021064	1278
154	2818	1.800315919999	1278
154	2941	2.10021064	1278
154	3106	2.40021064	1278
154	3130	2.400315919999	1278
154	3253	2.70021064	1278
154	3418	3.00021064	1278
154	3442	3.000315919999	1278
154	3565	3.30021064	1278
154	3730	3.60021064	1278
154	3754	3.600315919999	1278
154	3877	3.90021064	1278
154	4042	4.20021064	1278
154	4066	4.200315919999	1278
154	4189	4.50021064	1278
154	4354	4.80021064	1278
154	4378	4.800315919999	1278
154	4501	5.10021064	1278
154	4666	5.40021064	1278
154	4690	5.400315919999	1278
154	4813	5.70021064	1278
154	4978	6.00021064	1278
154	5002	6.000315919999	1278
154	5125	6.30021064	1278
154	5290	6.60021064	1278
154	5314	6.600315919999	1278
154	5437	6.90021064	1278
154	5602	7.20021064	1278
154	5626	7.200315919999	1278
154	5749	7.50021064	1278
154	5914	7.80021064	1278
154	5938	7.800315919999	1278
154	6061	8.10021064	1278
154	6226	8.40021064	1278
154	6250	8.400315919999	1278
154	6373	8.70021064	1278
154	6538	9.00021064	1278
154	6562	9.000315919999	1278
154	6685	9.30021064	1278
154	6850	9.60021064	1278
154	6874	9.600315919999	1278
154	6997	9.90021064	1278
154	7162	10.20021064	1278
154	7186	10.200315919999	1278
154	7309	10.50021064	1278
154	7474	10.80021064	1278
154	7498	10.800315919999	1278
154	7621	11.10021064	1278
154	7786	11.40021064	1278
154	7810	11.400315919999	1278
154	7933	11.70021064	1278
154	8098	12.00021064	1278
154	8122	12.000315919999	1278
154	8245	12.30021064	1278
154	8410	12.60021064	1278
154	8434	12.600315919999	1278
154	8557	12.90021064	1278
154	8722	13.20021064	1278
154	8746	13.200315919999	1278
154	8869	13.50021064	1278
154	9034	13.80021064	1278
154	9058	13.800315919999	1278
154	9181	14.10021064	1278
154	9346	14.40021064	1278
154	9370	14.400315919999	1278
154	9493	14.70021064	1278
154	9658	15.00021064	1278
154	9682	15.000315919999	1278
154	9805	15.30021064	1278
154	9970	15.60021064	1278
154	9994	15.600315919999	1278
154	10117	15.90021064	1278
154	10282	16.20021064	1278
154	10306	16.200315919999	1278
154	10429	16.50021064	1278
154	10594	16.80021064	1278
154	10618	16.800315919999	1278
154	10741	17.10021064	1278
154	10906	17.40021064	1278
154	10930	17.400315919999	1278
154	11053	17.70021064	1278
154	11218	18.00021064	1278
154	11242	18.000315919999	1278
154	11365	18.30021064	1278