version 2
run General-0-20161207-09:27:53-21307
attr configname General
attr datetime 20161207-09:27:53
attr experiment General
attr inifile omnetpp.ini
attr iterationvars ""
attr iterationvars2 $repetition=0
attr measurement ""
attr network Topo
attr processid 21307
attr repetition 0
attr replication #0
attr resultdir results
attr runnumber 0
attr seedset 0

vector 336  Topo.s1.tcp  tcpRcvQueueBytes  ETV
vector 323  Topo.s1.tcp  "advertised window"  ETV
vector 322  Topo.s1.tcp  "receive window"  ETV
vector 325  Topo.s1.tcp  "sent ack"  ETV
vector 266  Topo.s1.networkLayer.arp  sentReq:vector  ETV
attr title  "ARP request sent, vector"
vector 277  Topo.s1.eth[0].encap  encapPk:vector(packetBytes)  ETV
attr interpolationmode  none
attr source  encapPk
attr title  "packets encapsulated, vector(packetBytes)"
vector 273  Topo.s1.eth[0].mac  rxPkFromHL:vector(packetBytes)  ETV
attr interpolationmode  none
attr source  rxPkFromHL
attr title  "packet bytes from higher layer, vector(packetBytes)"
vector 268  Topo.s1.eth[0].mac  txPk:vector(packetBytes)  ETV
attr interpolationmode  none
attr source  txPk
attr title  "packets transmitted, vector(packetBytes)"
vector 286  Topo.controller.eth[0].mac  rxPkOk:vector(packetBytes)  ETV
attr interpolationmode  none
attr source  rxPkOk
attr title  "packets received OK, vector(packetBytes)"
vector 287  Topo.controller.eth[0].mac  passedUpPk:vector(packetBytes)  ETV
attr interpolationmode  none
attr source  packetSentToUpper
attr title  "packets passed to higher layer, vector(packetBytes)"
vector 295  Topo.controller.eth[0].encap  decapPk:vector(packetBytes)  ETV
attr interpolationmode  none
attr source  decapPk
attr title  "packets decapsulated, vector(packetBytes)"
vector 281  Topo.controller.networkLayer.arp  sentReply:vector  ETV
attr title  "ARP replies sent, vector"
vector 294  Topo.controller.eth[0].encap  encapPk:vector(packetBytes)  ETV
attr interpolationmode  none
attr source  encapPk
attr title  "packets encapsulated, vector(packetBytes)"
vector 290  Topo.controller.eth[0].mac  rxPkFromHL:vector(packetBytes)  ETV
attr interpolationmode  none
attr source  rxPkFromHL
attr title  "packet bytes from higher layer, vector(packetBytes)"
vector 285  Topo.controller.eth[0].mac  txPk:vector(packetBytes)  ETV
attr interpolationmode  none
attr source  txPk
attr title  "packets transmitted, vector(packetBytes)"
vector 269  Topo.s1.eth[0].mac  rxPkOk:vector(packetBytes)  ETV
attr interpolationmode  none
attr source  rxPkOk
attr title  "packets received OK, vector(packetBytes)"
vector 270  Topo.s1.eth[0].mac  passedUpPk:vector(packetBytes)  ETV
attr interpolationmode  none
attr source  packetSentToUpper
attr title  "packets passed to higher layer, vector(packetBytes)"
vector 278  Topo.s1.eth[0].encap  decapPk:vector(packetBytes)  ETV
attr interpolationmode  none
attr source  decapPk
attr title  "packets decapsulated, vector(packetBytes)"
vector 302  Topo.controller.tcp  "rcvd seq"  ETV
vector 303  Topo.controller.tcp  "rcvd ack"  ETV
vector 299  Topo.controller.tcp  "advertised window"  ETV
vector 297  Topo.controller.tcp  "send window"  ETV
vector 312  Topo.controller.tcp  tcpRcvQueueBytes  ETV
vector 298  Topo.controller.tcp  "receive window"  ETV
vector 301  Topo.controller.tcp  "sent ack"  ETV
vector 326  Topo.s1.tcp  "rcvd seq"  ETV
vector 327  Topo.s1.tcp  "rcvd ack"  ETV
vector 321  Topo.s1.tcp  "send window"  ETV
vector 304  Topo.controller.tcp  "unacked bytes"  ETV
vector 300  Topo.controller.tcp  "sent seq"  ETV
vector 329  Topo.s1.tcp  "rcvd dupAcks"  ETV
vector 324  Topo.s1.tcp  "sent seq"  ETV
vector 328  Topo.s1.tcp  "unacked bytes"  ETV
vector 316  Topo.controller.tcp  "measured RTT"  ETV
vector 317  Topo.controller.tcp  "smoothed RTT"  ETV
vector 318  Topo.controller.tcp  RTTVAR  ETV
vector 319  Topo.controller.tcp  RTO  ETV
vector 314  Topo.controller.tcp  cwnd  ETV
vector 305  Topo.controller.tcp  "rcvd dupAcks"  ETV
vector 340  Topo.s1.tcp  "measured RTT"  ETV
vector 341  Topo.s1.tcp  "smoothed RTT"  ETV
vector 342  Topo.s1.tcp  RTTVAR  ETV
vector 343  Topo.s1.tcp  RTO  ETV
vector 338  Topo.s1.tcp  cwnd  ETV
vector 1  Topo.client1.udpApp[0]  sentPk:vector(packetBytes)  ETV
attr interpolationmode  none
attr source  sentPk
attr title  "packets sent, vector(packetBytes)"
vector 3  Topo.client1.udp  sentPk:vector(packetBytes)  ETV
attr interpolationmode  none
attr source  sentPk
attr title  "packets sent, vector(packetBytes)"
vector 4  Topo.client1.udp  sentPk:vector(count)  ETV
attr interpolationmode  none
attr source  sentPk
attr title  "packets sent, vector(count)"
vector 10  Topo.client1.networkLayer.arp  sentReq:vector  ETV
attr title  "ARP request sent, vector"
vector 24  Topo.client1.eth[0].encap  encapPk:vector(packetBytes)  ETV
attr interpolationmode  none
attr source  encapPk
attr title  "packets encapsulated, vector(packetBytes)"
vector 20  Topo.client1.eth[0].mac  rxPkFromHL:vector(packetBytes)  ETV
attr interpolationmode  none
attr source  rxPkFromHL
attr title  "packet bytes from higher layer, vector(packetBytes)"
vector 15  Topo.client1.eth[0].mac  txPk:vector(packetBytes)  ETV
attr interpolationmode  none
attr source  txPk
attr title  "packets transmitted, vector(packetBytes)"
vector 190  Topo.s1.etherMAC[0]  rxPkOk:vector(packetBytes)  ETV
attr interpolationmode  none
attr source  rxPkOk
attr title  "packets received OK, vector(packetBytes)"
vector 191  Topo.s1.etherMAC[0]  passedUpPk:vector(packetBytes)  ETV
attr interpolationmode  none
attr source  packetSentToUpper
attr title  "packets passed to higher layer, vector(packetBytes)"
vector 205  Topo.s1.etherMAC[1]  rxPkFromHL:vector(packetBytes)  ETV
attr interpolationmode  none
attr source  rxPkFromHL
attr title  "packet bytes from higher layer, vector(packetBytes)"
vector 216  Topo.s1.etherMAC[2]  rxPkFromHL:vector(packetBytes)  ETV
attr interpolationmode  none
attr source  rxPkFromHL
attr title  "packet bytes from higher layer, vector(packetBytes)"
vector 227  Topo.s1.etherMAC[3]  rxPkFromHL:vector(packetBytes)  ETV
attr interpolationmode  none
attr source  rxPkFromHL
attr title  "packet bytes from higher layer, vector(packetBytes)"
vector 238  Topo.s1.etherMAC[4]  rxPkFromHL:vector(packetBytes)  ETV
attr interpolationmode  none
attr source  rxPkFromHL
attr title  "packet bytes from higher layer, vector(packetBytes)"
vector 249  Topo.s1.etherMAC[5]  rxPkFromHL:vector(packetBytes)  ETV
attr interpolationmode  none
attr source  rxPkFromHL
attr title  "packet bytes from higher layer, vector(packetBytes)"
vector 260  Topo.s1.etherMAC[6]  rxPkFromHL:vector(packetBytes)  ETV
attr interpolationmode  none
attr source  rxPkFromHL
attr title  "packet bytes from higher layer, vector(packetBytes)"
vector 200  Topo.s1.etherMAC[1]  txPk:vector(packetBytes)  ETV
attr interpolationmode  none
attr source  txPk
attr title  "packets transmitted, vector(packetBytes)"
vector 211  Topo.s1.etherMAC[2]  txPk:vector(packetBytes)  ETV
attr interpolationmode  none
attr source  txPk
attr title  "packets transmitted, vector(packetBytes)"
vector 222  Topo.s1.etherMAC[3]  txPk:vector(packetBytes)  ETV
attr interpolationmode  none
attr source  txPk
attr title  "packets transmitted, vector(packetBytes)"
vector 233  Topo.s1.etherMAC[4]  txPk:vector(packetBytes)  ETV
attr interpolationmode  none
attr source  txPk
attr title  "packets transmitted, vector(packetBytes)"
vector 244  Topo.s1.etherMAC[5]  txPk:vector(packetBytes)  ETV
attr interpolationmode  none
attr source  txPk
attr title  "packets transmitted, vector(packetBytes)"
vector 255  Topo.s1.etherMAC[6]  txPk:vector(packetBytes)  ETV
attr interpolationmode  none
attr source  txPk
attr title  "packets transmitted, vector(packetBytes)"
vector 43  Topo.client2.eth[0].mac  rxPkOk:vector(packetBytes)  ETV
attr interpolationmode  none
attr source  rxPkOk
attr title  "packets received OK, vector(packetBytes)"
vector 44  Topo.client2.eth[0].mac  passedUpPk:vector(packetBytes)  ETV
attr interpolationmode  none
attr source  packetSentToUpper
attr title  "packets passed to higher layer, vector(packetBytes)"
vector 70  Topo.client3.eth[0].mac  rxPkOk:vector(packetBytes)  ETV
attr interpolationmode  none
attr source  rxPkOk
attr title  "packets received OK, vector(packetBytes)"
vector 71  Topo.client3.eth[0].mac  passedUpPk:vector(packetBytes)  ETV
attr interpolationmode  none
attr source  packetSentToUpper
attr title  "packets passed to higher layer, vector(packetBytes)"
vector 97  Topo.client4.eth[0].mac  rxPkOk:vector(packetBytes)  ETV
attr interpolationmode  none
attr source  rxPkOk
attr title  "packets received OK, vector(packetBytes)"
vector 98  Topo.client4.eth[0].mac  passedUpPk:vector(packetBytes)  ETV
attr interpolationmode  none
attr source  packetSentToUpper
attr title  "packets passed to higher layer, vector(packetBytes)"
vector 124  Topo.server1.eth[0].mac  rxPkOk:vector(packetBytes)  ETV
attr interpolationmode  none
attr source  rxPkOk
attr title  "packets received OK, vector(packetBytes)"
vector 125  Topo.server1.eth[0].mac  passedUpPk:vector(packetBytes)  ETV
attr interpolationmode  none
attr source  packetSentToUpper
attr title  "packets passed to higher layer, vector(packetBytes)"
vector 151  Topo.server2.eth[0].mac  rxPkOk:vector(packetBytes)  ETV
attr interpolationmode  none
attr source  rxPkOk
attr title  "packets received OK, vector(packetBytes)"
vector 152  Topo.server2.eth[0].mac  passedUpPk:vector(packetBytes)  ETV
attr interpolationmode  none
attr source  packetSentToUpper
attr title  "packets passed to higher layer, vector(packetBytes)"
vector 178  Topo.server3.eth[0].mac  rxPkOk:vector(packetBytes)  ETV
attr interpolationmode  none
attr source  rxPkOk
attr title  "packets received OK, vector(packetBytes)"
vector 179  Topo.server3.eth[0].mac  passedUpPk:vector(packetBytes)  ETV
attr interpolationmode  none
attr source  packetSentToUpper
attr title  "packets passed to higher layer, vector(packetBytes)"
vector 52  Topo.client2.eth[0].encap  decapPk:vector(packetBytes)  ETV
attr interpolationmode  none
attr source  decapPk
attr title  "packets decapsulated, vector(packetBytes)"
vector 79  Topo.client3.eth[0].encap  decapPk:vector(packetBytes)  ETV
attr interpolationmode  none
attr source  decapPk
attr title  "packets decapsulated, vector(packetBytes)"
vector 106  Topo.client4.eth[0].encap  decapPk:vector(packetBytes)  ETV
attr interpolationmode  none
attr source  decapPk
attr title  "packets decapsulated, vector(packetBytes)"
vector 133  Topo.server1.eth[0].encap  decapPk:vector(packetBytes)  ETV
attr interpolationmode  none
attr source  decapPk
attr title  "packets decapsulated, vector(packetBytes)"
vector 160  Topo.server2.eth[0].encap  decapPk:vector(packetBytes)  ETV
attr interpolationmode  none
attr source  decapPk
attr title  "packets decapsulated, vector(packetBytes)"
vector 187  Topo.server3.eth[0].encap  decapPk:vector(packetBytes)  ETV
attr interpolationmode  none
attr source  decapPk
attr title  "packets decapsulated, vector(packetBytes)"
vector 119  Topo.server1.networkLayer.arp  sentReply:vector  ETV
attr title  "ARP replies sent, vector"
vector 132  Topo.server1.eth[0].encap  encapPk:vector(packetBytes)  ETV
attr interpolationmode  none
attr source  encapPk
attr title  "packets encapsulated, vector(packetBytes)"
vector 128  Topo.server1.eth[0].mac  rxPkFromHL:vector(packetBytes)  ETV
attr interpolationmode  none
attr source  rxPkFromHL
attr title  "packet bytes from higher layer, vector(packetBytes)"
vector 123  Topo.server1.eth[0].mac  txPk:vector(packetBytes)  ETV
attr interpolationmode  none
attr source  txPk
attr title  "packets transmitted, vector(packetBytes)"
vector 234  Topo.s1.etherMAC[4]  rxPkOk:vector(packetBytes)  ETV
attr interpolationmode  none
attr source  rxPkOk
attr title  "packets received OK, vector(packetBytes)"
vector 235  Topo.s1.etherMAC[4]  passedUpPk:vector(packetBytes)  ETV
attr interpolationmode  none
attr source  packetSentToUpper
attr title  "packets passed to higher layer, vector(packetBytes)"
vector 194  Topo.s1.etherMAC[0]  rxPkFromHL:vector(packetBytes)  ETV
attr interpolationmode  none
attr source  rxPkFromHL
attr title  "packet bytes from higher layer, vector(packetBytes)"
vector 189  Topo.s1.etherMAC[0]  txPk:vector(packetBytes)  ETV
attr interpolationmode  none
attr source  txPk
attr title  "packets transmitted, vector(packetBytes)"
vector 16  Topo.client1.eth[0].mac  rxPkOk:vector(packetBytes)  ETV
attr interpolationmode  none
attr source  rxPkOk
attr title  "packets received OK, vector(packetBytes)"
vector 17  Topo.client1.eth[0].mac  passedUpPk:vector(packetBytes)  ETV
attr interpolationmode  none
attr source  packetSentToUpper
attr title  "packets passed to higher layer, vector(packetBytes)"
vector 25  Topo.client1.eth[0].encap  decapPk:vector(packetBytes)  ETV
attr interpolationmode  none
attr source  decapPk
attr title  "packets decapsulated, vector(packetBytes)"
vector 113  Topo.server1.udp  rcvdPk:vector(packetBytes)  ETV
attr interpolationmode  none
attr source  rcvdPk
attr title  "packets received, vector(packetBytes)"
vector 117  Topo.server1.udp  delay:vector  ETV
attr interpolationmode  none
attr source  delay
attr title  "delay, vector"
vector 114  Topo.server1.udp  passedUpPk:vector(count)  ETV
attr interpolationmode  none
attr title  "packets passed up, vector(count)"
vector 108  Topo.server1.udpApp[0]  rcvdPk:vector(packetBytes)  ETV
attr interpolationmode  none
attr source  rcvdPk
attr title  "packets received, vector(packetBytes)"
vector 109  Topo.server1.udpApp[0]  rcvdPk:vector(count)  ETV
attr interpolationmode  none
attr source  rcvdPk
attr title  "packets received, vector(count)"
vector 82  Topo.client4.udpApp[0]  sentPk:vector(packetBytes)  ETV
attr interpolationmode  none
attr source  sentPk
attr title  "packets sent, vector(packetBytes)"
vector 84  Topo.client4.udp  sentPk:vector(packetBytes)  ETV
attr interpolationmode  none
attr source  sentPk
attr title  "packets sent, vector(packetBytes)"
vector 85  Topo.client4.udp  sentPk:vector(count)  ETV
attr interpolationmode  none
attr source  sentPk
attr title  "packets sent, vector(count)"
vector 91  Topo.client4.networkLayer.arp  sentReq:vector  ETV
attr title  "ARP request sent, vector"
vector 105  Topo.client4.eth[0].encap  encapPk:vector(packetBytes)  ETV
attr interpolationmode  none
attr source  encapPk
attr title  "packets encapsulated, vector(packetBytes)"
vector 101  Topo.client4.eth[0].mac  rxPkFromHL:vector(packetBytes)  ETV
attr interpolationmode  none
attr source  rxPkFromHL
attr title  "packet bytes from higher layer, vector(packetBytes)"
vector 96  Topo.client4.eth[0].mac  txPk:vector(packetBytes)  ETV
attr interpolationmode  none
attr source  txPk
attr title  "packets transmitted, vector(packetBytes)"
vector 223  Topo.s1.etherMAC[3]  rxPkOk:vector(packetBytes)  ETV
attr interpolationmode  none
attr source  rxPkOk
attr title  "packets received OK, vector(packetBytes)"
vector 224  Topo.s1.etherMAC[3]  passedUpPk:vector(packetBytes)  ETV
attr interpolationmode  none
attr source  packetSentToUpper
attr title  "packets passed to higher layer, vector(packetBytes)"
vector 173  Topo.server3.networkLayer.arp  sentReply:vector  ETV
attr title  "ARP replies sent, vector"
vector 186  Topo.server3.eth[0].encap  encapPk:vector(packetBytes)  ETV
attr interpolationmode  none
attr source  encapPk
attr title  "packets encapsulated, vector(packetBytes)"
vector 182  Topo.server3.eth[0].mac  rxPkFromHL:vector(packetBytes)  ETV
attr interpolationmode  none
attr source  rxPkFromHL
attr title  "packet bytes from higher layer, vector(packetBytes)"
vector 177  Topo.server3.eth[0].mac  txPk:vector(packetBytes)  ETV
attr interpolationmode  none
attr source  txPk
attr title  "packets transmitted, vector(packetBytes)"
vector 256  Topo.s1.etherMAC[6]  rxPkOk:vector(packetBytes)  ETV
attr interpolationmode  none
attr source  rxPkOk
attr title  "packets received OK, vector(packetBytes)"
vector 257  Topo.s1.etherMAC[6]  passedUpPk:vector(packetBytes)  ETV
attr interpolationmode  none
attr source  packetSentToUpper
attr title  "packets passed to higher layer, vector(packetBytes)"
vector 167  Topo.server3.udp  rcvdPk:vector(packetBytes)  ETV
attr interpolationmode  none
attr source  rcvdPk
attr title  "packets received, vector(packetBytes)"
vector 171  Topo.server3.udp  delay:vector  ETV
attr interpolationmode  none
attr source  delay
attr title  "delay, vector"
vector 168  Topo.server3.udp  passedUpPk:vector(count)  ETV
attr interpolationmode  none
attr title  "packets passed up, vector(count)"
vector 162  Topo.server3.udpApp[0]  rcvdPk:vector(packetBytes)  ETV
attr interpolationmode  none
attr source  rcvdPk
attr title  "packets received, vector(packetBytes)"
vector 163  Topo.server3.udpApp[0]  rcvdPk:vector(count)  ETV
attr interpolationmode  none
attr source  rcvdPk
attr title  "packets received, vector(count)"
vector 28  Topo.client2.udpApp[0]  sentPk:vector(packetBytes)  ETV
attr interpolationmode  none
attr source  sentPk
attr title  "packets sent, vector(packetBytes)"
vector 30  Topo.client2.udp  sentPk:vector(packetBytes)  ETV
attr interpolationmode  none
attr source  sentPk
attr title  "packets sent, vector(packetBytes)"
vector 31  Topo.client2.udp  sentPk:vector(count)  ETV
attr interpolationmode  none
attr source  sentPk
attr title  "packets sent, vector(count)"
vector 37  Topo.client2.networkLayer.arp  sentReq:vector  ETV
attr title  "ARP request sent, vector"
vector 51  Topo.client2.eth[0].encap  encapPk:vector(packetBytes)  ETV
attr interpolationmode  none
attr source  encapPk
attr title  "packets encapsulated, vector(packetBytes)"
vector 47  Topo.client2.eth[0].mac  rxPkFromHL:vector(packetBytes)  ETV
attr interpolationmode  none
attr source  rxPkFromHL
attr title  "packet bytes from higher layer, vector(packetBytes)"
vector 42  Topo.client2.eth[0].mac  txPk:vector(packetBytes)  ETV
attr interpolationmode  none
attr source  txPk
attr title  "packets transmitted, vector(packetBytes)"
vector 201  Topo.s1.etherMAC[1]  rxPkOk:vector(packetBytes)  ETV
attr interpolationmode  none
attr source  rxPkOk
attr title  "packets received OK, vector(packetBytes)"
vector 202  Topo.s1.etherMAC[1]  passedUpPk:vector(packetBytes)  ETV
attr interpolationmode  none
attr source  packetSentToUpper
attr title  "packets passed to higher layer, vector(packetBytes)"
vector 146  Topo.server2.networkLayer.arp  sentReply:vector  ETV
attr title  "ARP replies sent, vector"
vector 159  Topo.server2.eth[0].encap  encapPk:vector(packetBytes)  ETV
attr interpolationmode  none
attr source  encapPk
attr title  "packets encapsulated, vector(packetBytes)"
vector 155  Topo.server2.eth[0].mac  rxPkFromHL:vector(packetBytes)  ETV
attr interpolationmode  none
attr source  rxPkFromHL
attr title  "packet bytes from higher layer, vector(packetBytes)"
vector 150  Topo.server2.eth[0].mac  txPk:vector(packetBytes)  ETV
attr interpolationmode  none
attr source  txPk
attr title  "packets transmitted, vector(packetBytes)"
vector 245  Topo.s1.etherMAC[5]  rxPkOk:vector(packetBytes)  ETV
attr interpolationmode  none
attr source  rxPkOk
attr title  "packets received OK, vector(packetBytes)"
vector 246  Topo.s1.etherMAC[5]  passedUpPk:vector(packetBytes)  ETV
attr interpolationmode  none
attr source  packetSentToUpper
attr title  "packets passed to higher layer, vector(packetBytes)"
vector 140  Topo.server2.udp  rcvdPk:vector(packetBytes)  ETV
attr interpolationmode  none
attr source  rcvdPk
attr title  "packets received, vector(packetBytes)"
vector 144  Topo.server2.udp  delay:vector  ETV
attr interpolationmode  none
attr source  delay
attr title  "delay, vector"
vector 141  Topo.server2.udp  passedUpPk:vector(count)  ETV
attr interpolationmode  none
attr title  "packets passed up, vector(count)"
vector 135  Topo.server2.udpApp[0]  rcvdPk:vector(packetBytes)  ETV
attr interpolationmode  none
attr source  rcvdPk
attr title  "packets received, vector(packetBytes)"
vector 136  Topo.server2.udpApp[0]  rcvdPk:vector(count)  ETV
attr interpolationmode  none
attr source  rcvdPk
attr title  "packets received, vector(count)"
vector 164  Topo.server3.udpApp[0]  rcvdAppPkt:vector  ETV
attr interpolationmode  none
attr source  rcvdAppPkt
attr title  "packets received during sec, vector"
vector 110  Topo.server1.udpApp[0]  rcvdAppPkt:vector  ETV
attr interpolationmode  none
attr source  rcvdAppPkt
attr title  "packets received during sec, vector"
vector 137  Topo.server2.udpApp[0]  rcvdAppPkt:vector  ETV
attr interpolationmode  none
attr source  rcvdAppPkt
attr title  "packets received during sec, vector"
vector 55  Topo.client3.udpApp[0]  sentPk:vector(packetBytes)  ETV
attr interpolationmode  none
attr source  sentPk
attr title  "packets sent, vector(packetBytes)"
vector 57  Topo.client3.udp  sentPk:vector(packetBytes)  ETV
attr interpolationmode  none
attr source  sentPk
attr title  "packets sent, vector(packetBytes)"
vector 58  Topo.client3.udp  sentPk:vector(count)  ETV
attr interpolationmode  none
attr source  sentPk
attr title  "packets sent, vector(count)"
vector 64  Topo.client3.networkLayer.arp  sentReq:vector  ETV
attr title  "ARP request sent, vector"
vector 78  Topo.client3.eth[0].encap  encapPk:vector(packetBytes)  ETV
attr interpolationmode  none
attr source  encapPk
attr title  "packets encapsulated, vector(packetBytes)"
vector 74  Topo.client3.eth[0].mac  rxPkFromHL:vector(packetBytes)  ETV
attr interpolationmode  none
attr source  rxPkFromHL
attr title  "packet bytes from higher layer, vector(packetBytes)"
vector 69  Topo.client3.eth[0].mac  txPk:vector(packetBytes)  ETV
attr interpolationmode  none
attr source  txPk
attr title  "packets transmitted, vector(packetBytes)"
vector 212  Topo.s1.etherMAC[2]  rxPkOk:vector(packetBytes)  ETV
attr interpolationmode  none
attr source  rxPkOk
attr title  "packets received OK, vector(packetBytes)"
vector 213  Topo.s1.etherMAC[2]  passedUpPk:vector(packetBytes)  ETV
attr interpolationmode  none
attr source  packetSentToUpper
attr title  "packets passed to higher layer, vector(packetBytes)"
1	181	0.1	1250
1	646	0.2	1250
1	1137	0.3	1250
1	1166	0.4	1250
1	1221	0.5	1250
1	1251	0.6	1250
1	1769	0.7	1250
1	1798	0.8	1250
1	1853	0.9	1250
1	1882	1	1250
1	1937	1.1	1250
1	1967	1.2	1250
1	2049	1.3	1250
1	2078	1.4	1250
1	2133	1.5	1250
1	2162	1.6	1250
1	2217	1.7	1250
1	2247	1.8	1250
1	2329	1.9	1250
1	2360	2	1250
1	2944	2.1	1250
1	2973	2.2	1250
1	3028	2.3	1250
1	3058	2.4	1250
1	3140	2.5	1250
1	3169	2.6	1250
1	3224	2.7	1250
1	3253	2.8	1250
1	3308	2.9	1250
1	3339	3	1250
1	3421	3.1	1250
1	3450	3.2	1250
1	3505	3.3	1250
1	3534	3.4	1250
1	3589	3.5	1250
1	3619	3.6	1250
1	3701	3.7	1250
1	3730	3.8	1250
1	3785	3.9	1250
1	3816	4	1250
1	3990	4.1	1250
1	4020	4.2	1250
1	4102	4.3	1250
1	4131	4.4	1250
1	4186	4.5	1250
1	4215	4.6	1250
1	4270	4.7	1250
1	4300	4.8	1250
1	4382	4.9	1250
1	4412	5	1250
1	4467	5.1	1250
1	4496	5.2	1250
1	4551	5.3	1250
1	4581	5.4	1250
1	4663	5.5	1250
1	4692	5.6	1250
1	4747	5.7	1250
1	4776	5.8	1250
1	4831	5.9	1250
1	4863	6	1250
1	5064	6.1	1250
1	5093	6.2	1250
1	5148	6.3	1250
1	5177	6.4	1250
1	5232	6.5	1250
1	5262	6.6	1250
1	5344	6.7	1250
1	5373	6.8	1250
1	5428	6.9	1250
1	5458	7	1250
1	5513	7.1	1250
1	5543	7.2	1250
1	5625	7.3	1250
1	5654	7.4	1250
1	5709	7.5	1250
1	5738	7.6	1250
1	5793	7.7	1250
1	5823	7.8	1250
1	5905	7.9	1250
1	5936	8	1250
1	6110	8.1	1250
1	6139	8.2	1250
1	6194	8.3	1250
1	6224	8.4	1250
1	6306	8.5	1250
1	6335	8.6	1250
1	6390	8.7	1250
1	6419	8.8	1250
1	6474	8.9	1250
1	6505	9	1250
1	6587	9.1	1250
1	6616	9.2	1250
1	6671	9.3	1250
1	6700	9.4	1250
1	6755	9.5	1250
1	6785	9.6	1250
1	6867	9.7	1250
1	6896	9.8	1250
1	6951	9.9	1250
1	6982	10	1250
1	7156	10.1	1250
1	7186	10.2	1250
1	7268	10.3	1250
1	7297	10.4	1250
1	7352	10.5	1250
1	7381	10.6	1250
1	7436	10.7	1250
1	7466	10.8	1250
1	7548	10.9	1250
1	7578	11	1250
1	7633	11.1	1250
1	7662	11.2	1250
1	7717	11.3	1250
1	7747	11.4	1250
1	7829	11.5	1250
1	7858	11.6	1250
1	7913	11.7	1250
1	7942	11.8	1250
1	7997	11.9	1250
1	8029	12	1250
1	8230	12.1	1250
1	8259	12.2	1250
1	8314	12.3	1250
1	8343	12.4	1250
1	8398	12.5	1250
1	8428	12.6	1250
1	8510	12.7	1250
1	8539	12.8	1250
1	8594	12.9	1250
1	8624	13	1250
1	8679	13.1	1250
1	8709	13.2	1250
1	8791	13.3	1250
1	8820	13.4	1250
1	8875	13.5	1250
1	8904	13.6	1250
1	8959	13.7	1250
1	8989	13.8	1250
1	9071	13.9	1250
1	9102	14	1250
1	9276	14.1	1250
1	9305	14.2	1250
1	9360	14.3	1250
1	9390	14.4	1250
1	9472	14.5	1250
1	9501	14.6	1250
1	9556	14.7	1250
1	9585	14.8	1250
1	9640	14.9	1250
1	9671	15	1250
1	9753	15.1	1250
1	9782	15.2	1250
1	9837	15.3	1250
1	9866	15.4	1250
1	9921	15.5	1250
1	9951	15.6	1250
1	10033	15.7	1250
1	10062	15.8	1250
1	10117	15.9	1250
1	10148	16	1250
1	10322	16.1	1250
1	10352	16.2	1250
1	10434	16.3	1250
1	10463	16.4	1250
1	10518	16.5	1250
1	10547	16.6	1250
1	10602	16.7	1250
1	10632	16.8	1250
1	10714	16.9	1250
1	10744	17	1250
1	10799	17.1	1250
1	10828	17.2	1250
1	10883	17.3	1250
1	10913	17.4	1250
1	10995	17.5	1250
1	11024	17.6	1250
1	11079	17.7	1250
1	11108	17.8	1250
1	11163	17.9	1250
1	11195	18	1250
1	11396	18.1	1250
1	11425	18.2	1250
1	11480	18.3	1250
1	11509	18.4	1250
1	11564	18.5	1250
1	11594	18.6	1250
1	11676	18.7	1250
1	11705	18.8	1250
1	11760	18.9	1250
1	11790	19	1250
1	11845	19.1	1250
1	11875	19.2	1250
1	11957	19.3	1250
1	11986	19.4	1250
1	12041	19.5	1250
1	12070	19.6	1250
1	12125	19.7	1250
1	12155	19.8	1250
1	12237	19.9	1250
1	12268	20	1250
1	12442	20.1	1250
1	12471	20.2	1250
1	12526	20.3	1250
1	12556	20.4	1250
1	12638	20.5	1250
1	12667	20.6	1250
1	12722	20.7	1250
1	12751	20.8	1250
1	12806	20.9	1250
1	12837	21	1250
1	12919	21.1	1250
1	12948	21.2	1250
1	13003	21.3	1250
1	13032	21.4	1250
1	13087	21.5	1250
1	13117	21.6	1250
1	13199	21.7	1250
1	13228	21.8	1250
1	13283	21.9	1250
1	13314	22	1250
1	13488	22.1	1250
1	13518	22.2	1250
1	13600	22.3	1250
1	13629	22.4	1250
1	13684	22.5	1250
1	13713	22.6	1250
1	13768	22.7	1250
1	13798	22.8	1250
1	13880	22.9	1250
1	13910	23	1250
1	13965	23.1	1250
1	13994	23.2	1250
1	14049	23.3	1250
1	14079	23.4	1250
1	14161	23.5	1250
1	14190	23.6	1250
1	14245	23.7	1250
1	14274	23.8	1250
1	14329	23.9	1250
1	14361	24	1250
1	14562	24.1	1250
1	14591	24.2	1250
1	14646	24.3	1250
1	14675	24.4	1250
1	14730	24.5	1250
1	14760	24.6	1250
1	14842	24.7	1250
1	14871	24.8	1250
1	14926	24.9	1250
1	14956	25	1250
1	15011	25.1	1250
1	15041	25.2	1250
1	15123	25.3	1250
1	15152	25.4	1250
1	15207	25.5	1250
1	15236	25.6	1250
1	15291	25.7	1250
1	15321	25.8	1250
1	15403	25.9	1250
1	15434	26	1250
1	15608	26.1	1250
1	15637	26.2	1250
1	15692	26.3	1250
1	15722	26.4	1250
1	15804	26.5	1250
1	15833	26.6	1250
1	15888	26.7	1250
1	15917	26.8	1250
1	15972	26.9	1250
1	16003	27	1250
1	16085	27.1	1250
1	16114	27.2	1250
1	16169	27.3	1250
1	16198	27.4	1250
1	16253	27.5	1250
1	16283	27.6	1250
1	16365	27.7	1250
1	16394	27.8	1250
1	16449	27.9	1250
1	16480	28	1250
1	16654	28.1	1250
1	16684	28.2	1250
1	16766	28.3	1250
1	16795	28.4	1250
1	16850	28.5	1250
1	16879	28.6	1250
1	16934	28.7	1250
1	16964	28.8	1250
1	17046	28.9	1250
1	17076	29	1250
1	17131	29.1	1250
1	17160	29.2	1250
1	17215	29.3	1250
1	17245	29.4	1250
1	17327	29.5	1250
1	17356	29.6	1250
1	17411	29.7	1250
1	17440	29.8	1250
1	17495	29.9	1250
1	17528	30	1250
1	17764	30.1	1250
1	17857	30.2	1250
1	17976	30.3	1250
1	18005	30.4	1250
1	18255	30.5	1250
1	18285	30.6	1250
1	18431	30.7	1250
1	18460	30.8	1250
1	18515	30.9	1250
1	18546	31	1250
1	18601	31.1	1250
1	18631	31.2	1250
1	18908	31.3	1250
1	18937	31.4	1250
1	18992	31.5	1250
1	19021	31.6	1250
1	19076	31.7	1250
1	19106	31.8	1250
1	19188	31.9	1250
1	19220	32	1250
1	19498	32.1	1250
1	19527	32.2	1250
1	19582	32.3	1250
1	19612	32.4	1250
1	19694	32.5	1250
1	19723	32.6	1250
1	19778	32.7	1250
1	19807	32.8	1250
1	19862	32.9	1250
1	19894	33	1250
1	19976	33.1	1250
1	20005	33.2	1250
1	20060	33.3	1250
1	20089	33.4	1250
1	20144	33.5	1250
1	20174	33.6	1250
1	20256	33.7	1250
1	20285	33.8	1250
1	20340	33.9	1250
1	20372	34	1250
1	20781	34.1	1250
1	20811	34.2	1250
1	20893	34.3	1250
1	20922	34.4	1250
1	20977	34.5	1250
1	21006	34.6	1250
1	21061	34.7	1250
1	21091	34.8	1250
1	21173	34.9	1250
1	21204	35	1250
1	21259	35.1	1250
1	21288	35.2	1250
1	21343	35.3	1250
1	21373	35.4	1250
1	21455	35.5	1250
1	21484	35.6	1250
1	21539	35.7	1250
1	21568	35.8	1250
1	21623	35.9	1250
1	21656	36	1250
1	21897	36.1	1250
1	21926	36.2	1250
1	21981	36.3	1250
1	22010	36.4	1250
1	22065	36.5	1250
1	22095	36.6	1250
1	22177	36.7	1250
1	22206	36.8	1250
1	22261	36.9	1250
1	22292	37	1250
1	22347	37.1	1250
1	22377	37.2	1250
1	22459	37.3	1250
1	22488	37.4	1250
1	22543	37.5	1250
1	22572	37.6	1250
1	22627	37.7	1250
1	22657	37.8	1250
1	22739	37.9	1250
1	22771	38	1250
1	22985	38.1	1250
1	23014	38.2	1250
1	23069	38.3	1250
1	23099	38.4	1250
1	23181	38.5	1250
1	23210	38.6	1250
1	23265	38.7	1250
1	23294	38.8	1250
1	23349	38.9	1250
1	23381	39	1250
1	23463	39.1	1250
1	23492	39.2	1250
1	23547	39.3	1250
1	23576	39.4	1250
1	23631	39.5	1250
1	23661	39.6	1250
1	23743	39.7	1250
1	23772	39.8	1250
1	23827	39.9	1250
1	23859	40	1250
1	24073	40.1	1250
1	24103	40.2	1250
1	24185	40.3	1250
1	24214	40.4	1250
1	24269	40.5	1250
1	24298	40.6	1250
1	24353	40.7	1250
1	24383	40.8	1250
1	24465	40.9	1250
1	24496	41	1250
1	24551	41.1	1250
1	24580	41.2	1250
1	24635	41.3	1250
1	24665	41.4	1250
1	24747	41.5	1250
1	24776	41.6	1250
1	24831	41.7	1250
1	24860	41.8	1250
1	24915	41.9	1250
1	24948	42	1250
1	25189	42.1	1250
1	25218	42.2	1250
1	25273	42.3	1250
1	25302	42.4	1250
1	25357	42.5	1250
1	25387	42.6	1250
1	25469	42.7	1250
1	25498	42.8	1250
1	25553	42.9	1250
1	25584	43	1250
1	25639	43.1	1250
1	25669	43.2	1250
1	25751	43.3	1250
1	25780	43.4	1250
1	25835	43.5	1250
1	25864	43.6	1250
1	25919	43.7	1250
1	25949	43.8	1250
1	26031	43.9	1250
1	26063	44	1250
1	26277	44.1	1250
1	26306	44.2	1250
1	26361	44.3	1250
1	26391	44.4	1250
1	26473	44.5	1250
1	26502	44.6	1250
1	26557	44.7	1250
1	26586	44.8	1250
1	26641	44.9	1250
1	26673	45	1250
1	26755	45.1	1250
1	26784	45.2	1250
1	26839	45.3	1250
1	26868	45.4	1250
1	26923	45.5	1250
1	26953	45.6	1250
1	27035	45.7	1250
1	27064	45.8	1250
1	27119	45.9	1250
1	27151	46	1250