version 2
run simple_attack-0-20161109-11:13:50-11330
attr configname simple_attack
attr datetime 20161109-11:13:50
attr experiment simple_attack
attr inifile omnetpp.ini
attr iterationvars ""
attr iterationvars2 $repetition=0
attr measurement ""
attr network Topo
attr processid 11330
attr repetition 0
attr replication #0
attr resultdir results
attr runnumber 0
attr seedset 0

vector 329  Topo.s1.tcp  tcpRcvQueueBytes  ETV
vector 316  Topo.s1.tcp  "advertised window"  ETV
vector 315  Topo.s1.tcp  "receive window"  ETV
vector 318  Topo.s1.tcp  "sent ack"  ETV
vector 259  Topo.s1.networkLayer.arp  sentReq:vector  ETV
attr title  "ARP request sent, vector"
vector 270  Topo.s1.eth[0].encap  encapPk:vector(packetBytes)  ETV
attr interpolationmode  none
attr source  encapPk
attr title  "packets encapsulated, vector(packetBytes)"
vector 266  Topo.s1.eth[0].mac  rxPkFromHL:vector(packetBytes)  ETV
attr interpolationmode  none
attr source  rxPkFromHL
attr title  "packet bytes from higher layer, vector(packetBytes)"
vector 261  Topo.s1.eth[0].mac  txPk:vector(packetBytes)  ETV
attr interpolationmode  none
attr source  txPk
attr title  "packets transmitted, vector(packetBytes)"
vector 279  Topo.controller.eth[0].mac  rxPkOk:vector(packetBytes)  ETV
attr interpolationmode  none
attr source  rxPkOk
attr title  "packets received OK, vector(packetBytes)"
vector 280  Topo.controller.eth[0].mac  passedUpPk:vector(packetBytes)  ETV
attr interpolationmode  none
attr source  packetSentToUpper
attr title  "packets passed to higher layer, vector(packetBytes)"
vector 288  Topo.controller.eth[0].encap  decapPk:vector(packetBytes)  ETV
attr interpolationmode  none
attr source  decapPk
attr title  "packets decapsulated, vector(packetBytes)"
vector 274  Topo.controller.networkLayer.arp  sentReply:vector  ETV
attr title  "ARP replies sent, vector"
vector 287  Topo.controller.eth[0].encap  encapPk:vector(packetBytes)  ETV
attr interpolationmode  none
attr source  encapPk
attr title  "packets encapsulated, vector(packetBytes)"
vector 283  Topo.controller.eth[0].mac  rxPkFromHL:vector(packetBytes)  ETV
attr interpolationmode  none
attr source  rxPkFromHL
attr title  "packet bytes from higher layer, vector(packetBytes)"
vector 278  Topo.controller.eth[0].mac  txPk:vector(packetBytes)  ETV
attr interpolationmode  none
attr source  txPk
attr title  "packets transmitted, vector(packetBytes)"
vector 262  Topo.s1.eth[0].mac  rxPkOk:vector(packetBytes)  ETV
attr interpolationmode  none
attr source  rxPkOk
attr title  "packets received OK, vector(packetBytes)"
vector 263  Topo.s1.eth[0].mac  passedUpPk:vector(packetBytes)  ETV
attr interpolationmode  none
attr source  packetSentToUpper
attr title  "packets passed to higher layer, vector(packetBytes)"
vector 271  Topo.s1.eth[0].encap  decapPk:vector(packetBytes)  ETV
attr interpolationmode  none
attr source  decapPk
attr title  "packets decapsulated, vector(packetBytes)"
vector 295  Topo.controller.tcp  "rcvd seq"  ETV
vector 296  Topo.controller.tcp  "rcvd ack"  ETV
vector 292  Topo.controller.tcp  "advertised window"  ETV
vector 290  Topo.controller.tcp  "send window"  ETV
vector 305  Topo.controller.tcp  tcpRcvQueueBytes  ETV
vector 291  Topo.controller.tcp  "receive window"  ETV
vector 294  Topo.controller.tcp  "sent ack"  ETV
vector 319  Topo.s1.tcp  "rcvd seq"  ETV
vector 320  Topo.s1.tcp  "rcvd ack"  ETV
vector 314  Topo.s1.tcp  "send window"  ETV
vector 297  Topo.controller.tcp  "unacked bytes"  ETV
vector 293  Topo.controller.tcp  "sent seq"  ETV
vector 322  Topo.s1.tcp  "rcvd dupAcks"  ETV
vector 317  Topo.s1.tcp  "sent seq"  ETV
vector 321  Topo.s1.tcp  "unacked bytes"  ETV
vector 309  Topo.controller.tcp  "measured RTT"  ETV
vector 310  Topo.controller.tcp  "smoothed RTT"  ETV
vector 311  Topo.controller.tcp  RTTVAR  ETV
vector 312  Topo.controller.tcp  RTO  ETV
vector 307  Topo.controller.tcp  cwnd  ETV
vector 298  Topo.controller.tcp  "rcvd dupAcks"  ETV
vector 333  Topo.s1.tcp  "measured RTT"  ETV
vector 334  Topo.s1.tcp  "smoothed RTT"  ETV
vector 335  Topo.s1.tcp  RTTVAR  ETV
vector 336  Topo.s1.tcp  RTO  ETV
vector 331  Topo.s1.tcp  cwnd  ETV
vector 1  Topo.client1.udpApp[0]  sentPk:vector(packetBytes)  ETV
attr interpolationmode  none
attr source  sentPk
attr title  "packets sent, vector(packetBytes)"
vector 3  Topo.client1.udp  sentPk:vector(packetBytes)  ETV
attr interpolationmode  none
attr source  sentPk
attr title  "packets sent, vector(packetBytes)"
vector 4  Topo.client1.udp  sentPk:vector(count)  ETV
attr interpolationmode  none
attr source  sentPk
attr title  "packets sent, vector(count)"
vector 9  Topo.client1.networkLayer.arp  sentReq:vector  ETV
attr title  "ARP request sent, vector"
vector 23  Topo.client1.eth[0].encap  encapPk:vector(packetBytes)  ETV
attr interpolationmode  none
attr source  encapPk
attr title  "packets encapsulated, vector(packetBytes)"
vector 19  Topo.client1.eth[0].mac  rxPkFromHL:vector(packetBytes)  ETV
attr interpolationmode  none
attr source  rxPkFromHL
attr title  "packet bytes from higher layer, vector(packetBytes)"
vector 14  Topo.client1.eth[0].mac  txPk:vector(packetBytes)  ETV
attr interpolationmode  none
attr source  txPk
attr title  "packets transmitted, vector(packetBytes)"
vector 183  Topo.s1.etherMAC[0]  rxPkOk:vector(packetBytes)  ETV
attr interpolationmode  none
attr source  rxPkOk
attr title  "packets received OK, vector(packetBytes)"
vector 184  Topo.s1.etherMAC[0]  passedUpPk:vector(packetBytes)  ETV
attr interpolationmode  none
attr source  packetSentToUpper
attr title  "packets passed to higher layer, vector(packetBytes)"
vector 198  Topo.s1.etherMAC[1]  rxPkFromHL:vector(packetBytes)  ETV
attr interpolationmode  none
attr source  rxPkFromHL
attr title  "packet bytes from higher layer, vector(packetBytes)"
vector 209  Topo.s1.etherMAC[2]  rxPkFromHL:vector(packetBytes)  ETV
attr interpolationmode  none
attr source  rxPkFromHL
attr title  "packet bytes from higher layer, vector(packetBytes)"
vector 220  Topo.s1.etherMAC[3]  rxPkFromHL:vector(packetBytes)  ETV
attr interpolationmode  none
attr source  rxPkFromHL
attr title  "packet bytes from higher layer, vector(packetBytes)"
vector 231  Topo.s1.etherMAC[4]  rxPkFromHL:vector(packetBytes)  ETV
attr interpolationmode  none
attr source  rxPkFromHL
attr title  "packet bytes from higher layer, vector(packetBytes)"
vector 242  Topo.s1.etherMAC[5]  rxPkFromHL:vector(packetBytes)  ETV
attr interpolationmode  none
attr source  rxPkFromHL
attr title  "packet bytes from higher layer, vector(packetBytes)"
vector 253  Topo.s1.etherMAC[6]  rxPkFromHL:vector(packetBytes)  ETV
attr interpolationmode  none
attr source  rxPkFromHL
attr title  "packet bytes from higher layer, vector(packetBytes)"
vector 193  Topo.s1.etherMAC[1]  txPk:vector(packetBytes)  ETV
attr interpolationmode  none
attr source  txPk
attr title  "packets transmitted, vector(packetBytes)"
vector 204  Topo.s1.etherMAC[2]  txPk:vector(packetBytes)  ETV
attr interpolationmode  none
attr source  txPk
attr title  "packets transmitted, vector(packetBytes)"
vector 215  Topo.s1.etherMAC[3]  txPk:vector(packetBytes)  ETV
attr interpolationmode  none
attr source  txPk
attr title  "packets transmitted, vector(packetBytes)"
vector 226  Topo.s1.etherMAC[4]  txPk:vector(packetBytes)  ETV
attr interpolationmode  none
attr source  txPk
attr title  "packets transmitted, vector(packetBytes)"
vector 237  Topo.s1.etherMAC[5]  txPk:vector(packetBytes)  ETV
attr interpolationmode  none
attr source  txPk
attr title  "packets transmitted, vector(packetBytes)"
vector 248  Topo.s1.etherMAC[6]  txPk:vector(packetBytes)  ETV
attr interpolationmode  none
attr source  txPk
attr title  "packets transmitted, vector(packetBytes)"
vector 41  Topo.client2.eth[0].mac  rxPkOk:vector(packetBytes)  ETV
attr interpolationmode  none
attr source  rxPkOk
attr title  "packets received OK, vector(packetBytes)"
vector 42  Topo.client2.eth[0].mac  passedUpPk:vector(packetBytes)  ETV
attr interpolationmode  none
attr source  packetSentToUpper
attr title  "packets passed to higher layer, vector(packetBytes)"
vector 67  Topo.client3.eth[0].mac  rxPkOk:vector(packetBytes)  ETV
attr interpolationmode  none
attr source  rxPkOk
attr title  "packets received OK, vector(packetBytes)"
vector 68  Topo.client3.eth[0].mac  passedUpPk:vector(packetBytes)  ETV
attr interpolationmode  none
attr source  packetSentToUpper
attr title  "packets passed to higher layer, vector(packetBytes)"
vector 93  Topo.client4.eth[0].mac  rxPkOk:vector(packetBytes)  ETV
attr interpolationmode  none
attr source  rxPkOk
attr title  "packets received OK, vector(packetBytes)"
vector 94  Topo.client4.eth[0].mac  passedUpPk:vector(packetBytes)  ETV
attr interpolationmode  none
attr source  packetSentToUpper
attr title  "packets passed to higher layer, vector(packetBytes)"
vector 119  Topo.server1.eth[0].mac  rxPkOk:vector(packetBytes)  ETV
attr interpolationmode  none
attr source  rxPkOk
attr title  "packets received OK, vector(packetBytes)"
vector 120  Topo.server1.eth[0].mac  passedUpPk:vector(packetBytes)  ETV
attr interpolationmode  none
attr source  packetSentToUpper
attr title  "packets passed to higher layer, vector(packetBytes)"
vector 145  Topo.server2.eth[0].mac  rxPkOk:vector(packetBytes)  ETV
attr interpolationmode  none
attr source  rxPkOk
attr title  "packets received OK, vector(packetBytes)"
vector 146  Topo.server2.eth[0].mac  passedUpPk:vector(packetBytes)  ETV
attr interpolationmode  none
attr source  packetSentToUpper
attr title  "packets passed to higher layer, vector(packetBytes)"
vector 171  Topo.server3.eth[0].mac  rxPkOk:vector(packetBytes)  ETV
attr interpolationmode  none
attr source  rxPkOk
attr title  "packets received OK, vector(packetBytes)"
vector 172  Topo.server3.eth[0].mac  passedUpPk:vector(packetBytes)  ETV
attr interpolationmode  none
attr source  packetSentToUpper
attr title  "packets passed to higher layer, vector(packetBytes)"
vector 50  Topo.client2.eth[0].encap  decapPk:vector(packetBytes)  ETV
attr interpolationmode  none
attr source  decapPk
attr title  "packets decapsulated, vector(packetBytes)"
vector 76  Topo.client3.eth[0].encap  decapPk:vector(packetBytes)  ETV
attr interpolationmode  none
attr source  decapPk
attr title  "packets decapsulated, vector(packetBytes)"
vector 102  Topo.client4.eth[0].encap  decapPk:vector(packetBytes)  ETV
attr interpolationmode  none
attr source  decapPk
attr title  "packets decapsulated, vector(packetBytes)"
vector 128  Topo.server1.eth[0].encap  decapPk:vector(packetBytes)  ETV
attr interpolationmode  none
attr source  decapPk
attr title  "packets decapsulated, vector(packetBytes)"
vector 154  Topo.server2.eth[0].encap  decapPk:vector(packetBytes)  ETV
attr interpolationmode  none
attr source  decapPk
attr title  "packets decapsulated, vector(packetBytes)"
vector 180  Topo.server3.eth[0].encap  decapPk:vector(packetBytes)  ETV
attr interpolationmode  none
attr source  decapPk
attr title  "packets decapsulated, vector(packetBytes)"
vector 114  Topo.server1.networkLayer.arp  sentReply:vector  ETV
attr title  "ARP replies sent, vector"
vector 127  Topo.server1.eth[0].encap  encapPk:vector(packetBytes)  ETV
attr interpolationmode  none
attr source  encapPk
attr title  "packets encapsulated, vector(packetBytes)"
vector 123  Topo.server1.eth[0].mac  rxPkFromHL:vector(packetBytes)  ETV
attr interpolationmode  none
attr source  rxPkFromHL
attr title  "packet bytes from higher layer, vector(packetBytes)"
vector 118  Topo.server1.eth[0].mac  txPk:vector(packetBytes)  ETV
attr interpolationmode  none
attr source  txPk
attr title  "packets transmitted, vector(packetBytes)"
vector 227  Topo.s1.etherMAC[4]  rxPkOk:vector(packetBytes)  ETV
attr interpolationmode  none
attr source  rxPkOk
attr title  "packets received OK, vector(packetBytes)"
vector 228  Topo.s1.etherMAC[4]  passedUpPk:vector(packetBytes)  ETV
attr interpolationmode  none
attr source  packetSentToUpper
attr title  "packets passed to higher layer, vector(packetBytes)"
vector 187  Topo.s1.etherMAC[0]  rxPkFromHL:vector(packetBytes)  ETV
attr interpolationmode  none
attr source  rxPkFromHL
attr title  "packet bytes from higher layer, vector(packetBytes)"
vector 182  Topo.s1.etherMAC[0]  txPk:vector(packetBytes)  ETV
attr interpolationmode  none
attr source  txPk
attr title  "packets transmitted, vector(packetBytes)"
vector 15  Topo.client1.eth[0].mac  rxPkOk:vector(packetBytes)  ETV
attr interpolationmode  none
attr source  rxPkOk
attr title  "packets received OK, vector(packetBytes)"
vector 16  Topo.client1.eth[0].mac  passedUpPk:vector(packetBytes)  ETV
attr interpolationmode  none
attr source  packetSentToUpper
attr title  "packets passed to higher layer, vector(packetBytes)"
vector 24  Topo.client1.eth[0].encap  decapPk:vector(packetBytes)  ETV
attr interpolationmode  none
attr source  decapPk
attr title  "packets decapsulated, vector(packetBytes)"
vector 109  Topo.server1.udp  rcvdPk:vector(packetBytes)  ETV
attr interpolationmode  none
attr source  rcvdPk
attr title  "packets received, vector(packetBytes)"
vector 110  Topo.server1.udp  passedUpPk:vector(count)  ETV
attr interpolationmode  none
attr title  "packets passed up, vector(count)"
vector 104  Topo.server1.udpApp[0]  rcvdPk:vector(packetBytes)  ETV
attr interpolationmode  none
attr source  rcvdPk
attr title  "packets received, vector(packetBytes)"
vector 105  Topo.server1.udpApp[0]  rcvdPk:vector(count)  ETV
attr interpolationmode  none
attr source  rcvdPk
attr title  "packets received, vector(count)"
vector 79  Topo.client4.udpApp[0]  sentPk:vector(packetBytes)  ETV
attr interpolationmode  none
attr source  sentPk
attr title  "packets sent, vector(packetBytes)"
vector 81  Topo.client4.udp  sentPk:vector(packetBytes)  ETV
attr interpolationmode  none
attr source  sentPk
attr title  "packets sent, vector(packetBytes)"
vector 82  Topo.client4.udp  sentPk:vector(count)  ETV
attr interpolationmode  none
attr source  sentPk
attr title  "packets sent, vector(count)"
vector 87  Topo.client4.networkLayer.arp  sentReq:vector  ETV
attr title  "ARP request sent, vector"
vector 101  Topo.client4.eth[0].encap  encapPk:vector(packetBytes)  ETV
attr interpolationmode  none
attr source  encapPk
attr title  "packets encapsulated, vector(packetBytes)"
vector 97  Topo.client4.eth[0].mac  rxPkFromHL:vector(packetBytes)  ETV
attr interpolationmode  none
attr source  rxPkFromHL
attr title  "packet bytes from higher layer, vector(packetBytes)"
vector 92  Topo.client4.eth[0].mac  txPk:vector(packetBytes)  ETV
attr interpolationmode  none
attr source  txPk
attr title  "packets transmitted, vector(packetBytes)"
vector 216  Topo.s1.etherMAC[3]  rxPkOk:vector(packetBytes)  ETV
attr interpolationmode  none
attr source  rxPkOk
attr title  "packets received OK, vector(packetBytes)"
vector 217  Topo.s1.etherMAC[3]  passedUpPk:vector(packetBytes)  ETV
attr interpolationmode  none
attr source  packetSentToUpper
attr title  "packets passed to higher layer, vector(packetBytes)"
vector 166  Topo.server3.networkLayer.arp  sentReply:vector  ETV
attr title  "ARP replies sent, vector"
vector 179  Topo.server3.eth[0].encap  encapPk:vector(packetBytes)  ETV
attr interpolationmode  none
attr source  encapPk
attr title  "packets encapsulated, vector(packetBytes)"
vector 175  Topo.server3.eth[0].mac  rxPkFromHL:vector(packetBytes)  ETV
attr interpolationmode  none
attr source  rxPkFromHL
attr title  "packet bytes from higher layer, vector(packetBytes)"
vector 170  Topo.server3.eth[0].mac  txPk:vector(packetBytes)  ETV
attr interpolationmode  none
attr source  txPk
attr title  "packets transmitted, vector(packetBytes)"
vector 249  Topo.s1.etherMAC[6]  rxPkOk:vector(packetBytes)  ETV
attr interpolationmode  none
attr source  rxPkOk
attr title  "packets received OK, vector(packetBytes)"
vector 250  Topo.s1.etherMAC[6]  passedUpPk:vector(packetBytes)  ETV
attr interpolationmode  none
attr source  packetSentToUpper
attr title  "packets passed to higher layer, vector(packetBytes)"
vector 161  Topo.server3.udp  rcvdPk:vector(packetBytes)  ETV
attr interpolationmode  none
attr source  rcvdPk
attr title  "packets received, vector(packetBytes)"
vector 162  Topo.server3.udp  passedUpPk:vector(count)  ETV
attr interpolationmode  none
attr title  "packets passed up, vector(count)"
vector 156  Topo.server3.udpApp[0]  rcvdPk:vector(packetBytes)  ETV
attr interpolationmode  none
attr source  rcvdPk
attr title  "packets received, vector(packetBytes)"
vector 157  Topo.server3.udpApp[0]  rcvdPk:vector(count)  ETV
attr interpolationmode  none
attr source  rcvdPk
attr title  "packets received, vector(count)"
vector 27  Topo.client2.udpApp[0]  sentPk:vector(packetBytes)  ETV
attr interpolationmode  none
attr source  sentPk
attr title  "packets sent, vector(packetBytes)"
vector 29  Topo.client2.udp  sentPk:vector(packetBytes)  ETV
attr interpolationmode  none
attr source  sentPk
attr title  "packets sent, vector(packetBytes)"
vector 30  Topo.client2.udp  sentPk:vector(count)  ETV
attr interpolationmode  none
attr source  sentPk
attr title  "packets sent, vector(count)"
vector 35  Topo.client2.networkLayer.arp  sentReq:vector  ETV
attr title  "ARP request sent, vector"
vector 49  Topo.client2.eth[0].encap  encapPk:vector(packetBytes)  ETV
attr interpolationmode  none
attr source  encapPk
attr title  "packets encapsulated, vector(packetBytes)"
vector 45  Topo.client2.eth[0].mac  rxPkFromHL:vector(packetBytes)  ETV
attr interpolationmode  none
attr source  rxPkFromHL
attr title  "packet bytes from higher layer, vector(packetBytes)"
vector 40  Topo.client2.eth[0].mac  txPk:vector(packetBytes)  ETV
attr interpolationmode  none
attr source  txPk
attr title  "packets transmitted, vector(packetBytes)"
vector 194  Topo.s1.etherMAC[1]  rxPkOk:vector(packetBytes)  ETV
attr interpolationmode  none
attr source  rxPkOk
attr title  "packets received OK, vector(packetBytes)"
vector 195  Topo.s1.etherMAC[1]  passedUpPk:vector(packetBytes)  ETV
attr interpolationmode  none
attr source  packetSentToUpper
attr title  "packets passed to higher layer, vector(packetBytes)"
vector 140  Topo.server2.networkLayer.arp  sentReply:vector  ETV
attr title  "ARP replies sent, vector"
vector 153  Topo.server2.eth[0].encap  encapPk:vector(packetBytes)  ETV
attr interpolationmode  none
attr source  encapPk
attr title  "packets encapsulated, vector(packetBytes)"
vector 149  Topo.server2.eth[0].mac  rxPkFromHL:vector(packetBytes)  ETV
attr interpolationmode  none
attr source  rxPkFromHL
attr title  "packet bytes from higher layer, vector(packetBytes)"
vector 144  Topo.server2.eth[0].mac  txPk:vector(packetBytes)  ETV
attr interpolationmode  none
attr source  txPk
attr title  "packets transmitted, vector(packetBytes)"
vector 238  Topo.s1.etherMAC[5]  rxPkOk:vector(packetBytes)  ETV
attr interpolationmode  none
attr source  rxPkOk
attr title  "packets received OK, vector(packetBytes)"
vector 239  Topo.s1.etherMAC[5]  passedUpPk:vector(packetBytes)  ETV
attr interpolationmode  none
attr source  packetSentToUpper
attr title  "packets passed to higher layer, vector(packetBytes)"
vector 135  Topo.server2.udp  rcvdPk:vector(packetBytes)  ETV
attr interpolationmode  none
attr source  rcvdPk
attr title  "packets received, vector(packetBytes)"
vector 136  Topo.server2.udp  passedUpPk:vector(count)  ETV
attr interpolationmode  none
attr title  "packets passed up, vector(count)"
vector 130  Topo.server2.udpApp[0]  rcvdPk:vector(packetBytes)  ETV
attr interpolationmode  none
attr source  rcvdPk
attr title  "packets received, vector(packetBytes)"
vector 131  Topo.server2.udpApp[0]  rcvdPk:vector(count)  ETV
attr interpolationmode  none
attr source  rcvdPk
attr title  "packets received, vector(count)"
vector 158  Topo.server3.udpApp[0]  rcvdAppPkt:vector  ETV
attr interpolationmode  none
attr source  rcvdAppPkt
attr title  "packets received during sec, vector"
vector 106  Topo.server1.udpApp[0]  rcvdAppPkt:vector  ETV
attr interpolationmode  none
attr source  rcvdAppPkt
attr title  "packets received during sec, vector"
vector 132  Topo.server2.udpApp[0]  rcvdAppPkt:vector  ETV
attr interpolationmode  none
attr source  rcvdAppPkt
attr title  "packets received during sec, vector"
vector 53  Topo.client3.udpApp[0]  sentPk:vector(packetBytes)  ETV
attr interpolationmode  none
attr source  sentPk
attr title  "packets sent, vector(packetBytes)"
vector 55  Topo.client3.udp  sentPk:vector(packetBytes)  ETV
attr interpolationmode  none
attr source  sentPk
attr title  "packets sent, vector(packetBytes)"
vector 56  Topo.client3.udp  sentPk:vector(count)  ETV
attr interpolationmode  none
attr source  sentPk
attr title  "packets sent, vector(count)"
vector 61  Topo.client3.networkLayer.arp  sentReq:vector  ETV
attr title  "ARP request sent, vector"
vector 75  Topo.client3.eth[0].encap  encapPk:vector(packetBytes)  ETV
attr interpolationmode  none
attr source  encapPk
attr title  "packets encapsulated, vector(packetBytes)"
vector 71  Topo.client3.eth[0].mac  rxPkFromHL:vector(packetBytes)  ETV
attr interpolationmode  none
attr source  rxPkFromHL
attr title  "packet bytes from higher layer, vector(packetBytes)"
vector 66  Topo.client3.eth[0].mac  txPk:vector(packetBytes)  ETV
attr interpolationmode  none
attr source  txPk
attr title  "packets transmitted, vector(packetBytes)"
vector 205  Topo.s1.etherMAC[2]  rxPkOk:vector(packetBytes)  ETV
attr interpolationmode  none
attr source  rxPkOk
attr title  "packets received OK, vector(packetBytes)"
vector 206  Topo.s1.etherMAC[2]  passedUpPk:vector(packetBytes)  ETV
attr interpolationmode  none
attr source  packetSentToUpper
attr title  "packets passed to higher layer, vector(packetBytes)"
vector 139  Topo.server2.networkLayer.arp  sentReq:vector  ETV
attr title  "ARP request sent, vector"
1	181	0.1	1250
1	646	0.2	1250
1	1306	0.3	1250
1	1530	0.4	1250
1	1949	0.5	1250
1	2174	0.6	1250
1	3030	0.7	1250
1	3254	0.8	1250
1	3673	0.9	1250
1	3897	1	1250
1	4316	1.1	1250
1	4541	1.2	1250
1	5156	1.3	1250
1	5380	1.4	1250
1	5799	1.5	1250
1	6023	1.6	1250
1	6442	1.7	1250
1	6667	1.8	1250
1	7282	1.9	1250
1	7507	2	1250
1	8363	2.1	1250
1	8587	2.2	1250
1	9006	2.3	1250
1	9231	2.4	1250
1	9846	2.5	1250
1	10070	2.6	1250
1	10489	2.7	1250
1	10713	2.8	1250
1	11132	2.9	1250
1	11357	3	1250
1	11972	3.1	1250
1	12196	3.2	1250
1	12615	3.3	1250
1	12839	3.4	1250
1	13258	3.5	1250
1	13483	3.6	1250
1	14098	3.7	1250
1	14322	3.8	1250
1	14741	3.9	1250
1	14966	4	1250
1	15581	4.1	1250
1	15806	4.2	1250
1	16421	4.3	1250
1	16645	4.4	1250
1	17064	4.5	1250
1	17288	4.6	1250
1	17707	4.7	1250
1	17932	4.8	1250
1	18547	4.9	1250
1	18771	5	1250
1	19190	5.1	1250
1	19414	5.2	1250
1	19833	5.3	1250
1	20058	5.4	1250
1	20673	5.5	1250
1	20897	5.6	1250
1	21316	5.7	1250
1	21540	5.8	1250
1	21959	5.9	1250
1	22185	6	1250
1	22996	6.1	1250
1	23220	6.2	1250
1	23639	6.3	1250
1	23863	6.4	1250
1	24282	6.5	1250
1	24507	6.6	1250
1	25122	6.7	1250
1	25346	6.8	1250
1	25765	6.9	1250
1	25989	7	1250
1	26408	7.1	1250
1	26633	7.2	1250
1	27248	7.3	1250
1	27472	7.4	1250
1	27891	7.5	1250
1	28115	7.6	1250
1	28534	7.7	1250
1	28759	7.8	1250
1	29374	7.9	1250
1	29599	8	1250
1	30214	8.1	1250
1	30438	8.2	1250
1	30857	8.3	1250
1	31082	8.4	1250
1	31697	8.5	1250
1	31921	8.6	1250
1	32340	8.7	1250
1	32564	8.8	1250
1	32983	8.9	1250
1	33208	9	1250
1	33823	9.1	1250
1	34047	9.2	1250
1	34466	9.3	1250
1	34690	9.4	1250
1	35109	9.5	1250
1	35334	9.6	1250
1	35949	9.7	1250
1	36173	9.8	1250
1	36592	9.9	1250
1	36817	10	1250
1	37432	10.1	1250
1	37657	10.2	1250
1	38272	10.3	1250
1	38496	10.4	1250
1	38915	10.5	1250
1	39139	10.6	1250
1	39558	10.7	1250
1	39783	10.8	1250
1	40398	10.9	1250
1	40622	11	1250
1	41041	11.1	1250
1	41265	11.2	1250
1	41684	11.3	1250
1	41909	11.4	1250
1	42524	11.5	1250
1	42748	11.6	1250
1	43167	11.7	1250
1	43391	11.8	1250
1	43810	11.9	1250
1	44036	12	1250
1	44847	12.1	1250
1	45071	12.2	1250
1	45490	12.3	1250
1	45714	12.4	1250
1	46133	12.5	1250
1	46358	12.6	1250
1	46973	12.7	1250
1	47197	12.8	1250
1	47616	12.9	1250
1	47840	13	1250
1	48259	13.1	1250
1	48484	13.2	1250
1	49099	13.3	1250
1	49323	13.4	1250
1	49742	13.5	1250
1	49966	13.6	1250
1	50385	13.7	1250
1	50610	13.8	1250
1	51225	13.9	1250
1	51450	14	1250
1	52065	14.1	1250
1	52289	14.2	1250
1	52708	14.3	1250
1	52933	14.4	1250
1	53548	14.5	1250
1	53772	14.6	1250
1	54191	14.7	1250
1	54415	14.8	1250
1	54834	14.9	1250
1	55059	15	1250
1	55674	15.1	1250
1	55898	15.2	1250
1	56317	15.3	1250
1	56541	15.4	1250
1	56960	15.5	1250
1	57185	15.6	1250
1	57800	15.7	1250
1	58024	15.8	1250
1	58443	15.9	1250
1	58668	16	1250
1	59283	16.1	1250
1	59508	16.2	1250
1	60123	16.3	1250
1	60347	16.4	1250
1	60766	16.5	1250
1	60990	16.6	1250
1	61409	16.7	1250
1	61634	16.8	1250
1	62249	16.9	1250
1	62473	17	1250
1	62892	17.1	1250
1	63116	17.2	1250
1	63535	17.3	1250
1	63760	17.4	1250
1	64375	17.5	1250
1	64599	17.6	1250
1	65018	17.7	1250
1	65242	17.8	1250
1	65661	17.9	1250
1	65887	18	1250
1	66698	18.1	1250
1	66922	18.2	1250
1	67341	18.3	1250
1	67565	18.4	1250
1	67984	18.5	1250
1	68209	18.6	1250
1	68824	18.7	1250
1	69048	18.8	1250
1	69467	18.9	1250
1	69691	19	1250
1	70110	19.1	1250
1	70335	19.2	1250
1	70950	19.3	1250
1	71174	19.4	1250
1	71593	19.5	1250
1	71817	19.6	1250
1	72236	19.7	1250
1	72461	19.8	1250
1	73076	19.9	1250
1	73302	20	1250
1	74147	20.1	1250
1	74371	20.2	1250
1	74790	20.3	1250
1	75016	20.4	1250
1	75734	20.5	1250
1	75958	20.6	1250
1	76377	20.7	1250
1	76612	20.8	1250
1	77124	20.9	1250
1	77349	21	1250
1	78092	21.1	1250
1	78327	21.2	1250
1	78839	21.3	1250
1	79063	21.4	1250
1	79482	21.5	1250
1	79718	21.6	1250
1	80426	21.7	1250
1	80650	21.8	1250
1	81069	21.9	1250
1	81305	22	1250
1	82141	22.1	1250
1	82366	22.2	1250
1	82981	22.3	1250
1	83216	22.4	1250
1	83728	22.5	1250
1	83952	22.6	1250
1	84371	22.7	1250
1	84607	22.8	1250
1	85315	22.9	1250
1	85539	23	1250
1	85959	23.1	1250
1	86194	23.2	1250
1	86833	23.3	1250
1	87058	23.4	1250
1	87673	23.5	1250
1	87908	23.6	1250
1	88420	23.7	1250
1	88644	23.8	1250
1	89063	23.9	1250
1	89300	24	1250
1	90204	24.1	1250
1	90428	24.2	1250
1	90975	24.3	1250
1	91210	24.4	1250
1	91722	24.5	1250
1	91947	24.6	1250
1	92562	24.7	1250
1	92797	24.8	1250
1	93309	24.9	1250
3	185	0.1	1258
3	652	0.2	1258
3	1308	0.3	1258
3	1534	0.4	1258
3	1951	0.5	1258
3	2182	0.6	1258
3	3032	0.7	1258
3	3258	0.8	1258
3	3675	0.9	1258
3	3901	1	1258
3	4318	1.1	1258
3	4547	1.2	1258
3	5158	1.3	1258
3	5384	1.4	1258
3	5801	1.5	1258
3	6027	1.6	1258
3	6444	1.7	1258
3	6673	1.8	1258
3	7284	1.9	1258
3	7515	2	1258
3	8365	2.1	1258
3	8591	2.2	1258
3	9008	2.3	1258
3	9237	2.4	1258
3	9848	2.5	1258
3	10074	2.6	1258
3	10491	2.7	1258
3	10717	2.8	1258
3	11134	2.9	1258
3	11363	3	1258
3	11974	3.1	1258
3	12200	3.2	1258
3	12617	3.3	1258
3	12843	3.4	1258
3	13260	3.5	1258
3	13489	3.6	1258
3	14100	3.7	1258
3	14326	3.8	1258
3	14743	3.9	1258
3	14972	4	1258
3	15583	4.1	1258
3	15812	4.2	1258
3	16423	4.3	1258
3	16649	4.4	1258
3	17066	4.5	1258
3	17292	4.6	1258
3	17709	4.7	1258
3	17938	4.8	1258
3	18549	4.9	1258
3	18775	5	1258
3	19192	5.1	1258
3	19418	5.2	1258
3	19835	5.3	1258
3	20064	5.4	1258
3	20675	5.5	1258
3	20901	5.6	1258
3	21318	5.7	1258
3	21544	5.8	1258
3	21961	5.9	1258
3	22193	6	1258
3	22998	6.1	1258
3	23224	6.2	1258
3	23641	6.3	1258
3	23867	6.4	1258
3	24284	6.5	1258
3	24513	6.6	1258
3	25124	6.7	1258
3	25350	6.8	1258
3	25767	6.9	1258
3	25993	7	1258
3	26410	7.1	1258
3	26639	7.2	1258
3	27250	7.3	1258
3	27476	7.4	1258
3	27893	7.5	1258
3	28119	7.6	1258
3	28536	7.7	1258
3	28765	7.8	1258
3	29376	7.9	1258
3	29605	8	1258
3	30216	8.1	1258
3	30442	8.2	1258
3	30859	8.3	1258
3	31088	8.4	1258
3	31699	8.5	1258
3	31925	8.6	1258
3	32342	8.7	1258
3	32568	8.8	1258
3	32985	8.9	1258
3	33214	9	1258
3	33825	9.1	1258
3	34051	9.2	1258
3	34468	9.3	1258
3	34694	9.4	1258
3	35111	9.5	1258
3	35340	9.6	1258
3	35951	9.7	1258
3	36177	9.8	1258
3	36594	9.9	1258
3	36823	10	1258
3	37434	10.1	1258
3	37663	10.2	1258
3	38274	10.3	1258
3	38500	10.4	1258
3	38917	10.5	1258
3	39143	10.6	1258
3	39560	10.7	1258
3	39789	10.8	1258
3	40400	10.9	1258
3	40626	11	1258
3	41043	11.1	1258
3	41269	11.2	1258
3	41686	11.3	1258
3	41915	11.4	1258
3	42526	11.5	1258
3	42752	11.6	1258
3	43169	11.7	1258
3	43395	11.8	1258
3	43812	11.9	1258
3	44044	12	1258
3	44849	12.1	1258
3	45075	12.2	1258
3	45492	12.3	1258
3	45718	12.4	1258
3	46135	12.5	1258
3	46364	12.6	1258
3	46975	12.7	1258
3	47201	12.8	1258
3	47618	12.9	1258
3	47844	13	1258
3	48261	13.1	1258
3	48490	13.2	1258
3	49101	13.3	1258
3	49327	13.4	1258
3	49744	13.5	1258
3	49970	13.6	1258
3	50387	13.7	1258
3	50616	13.8	1258
3	51227	13.9	1258
3	51456	14	1258
3	52067	14.1	1258
3	52293	14.2	1258
3	52710	14.3	1258
3	52939	14.4	1258
3	53550	14.5	1258
3	53776	14.6	1258
3	54193	14.7	1258
3	54419	14.8	1258
3	54836	14.9	1258
3	55065	15	1258
3	55676	15.1	1258
3	55902	15.2	1258
3	56319	15.3	1258
3	56545	15.4	1258
3	56962	15.5	1258
3	57191	15.6	1258
3	57802	15.7	1258
3	58028	15.8	1258
3	58445	15.9	1258
3	58674	16	1258
3	59285	16.1	1258
3	59514	16.2	1258
3	60125	16.3	1258
3	60351	16.4	1258
3	60768	16.5	1258
3	60994	16.6	1258
3	61411	16.7	1258
3	61640	16.8	1258
3	62251	16.9	1258
3	62477	17	1258
3	62894	17.1	1258
3	63120	17.2	1258
3	63537	17.3	1258
3	63766	17.4	1258
3	64377	17.5	1258
3	64603	17.6	1258
3	65020	17.7	1258
3	65246	17.8	1258
3	65663	17.9	1258
3	65895	18	1258
3	66700	18.1	1258
3	66926	18.2	1258
3	67343	18.3	1258
3	67569	18.4	1258
3	67986	18.5	1258
3	68215	18.6	1258
3	68826	18.7	1258
3	69052	18.8	1258
3	69469	18.9	1258
3	69695	19	1258
3	70112	19.1	1258
3	70341	19.2	1258
3	70952	19.3	1258
3	71178	19.4	1258
3	71595	19.5	1258
3	71821	19.6	1258
3	72238	19.7	1258
3	72467	19.8	1258
3	73078	19.9	1258
3	73310	20	1258
3	74149	20.1	1258
3	74375	20.2	1258
3	74792	20.3	1258
3	75024	20.4	1258
3	75736	20.5	1258
3	75962	20.6	1258
3	76379	20.7	1258
3	76616	20.8	1258
3	77126	20.9	1258
3	77355	21	1258
3	78094	21.1	1258
3	78331	21.2	1258
3	78841	21.3	1258
3	79067	21.4	1258
3	79484	21.5	1258
3	79724	21.6	1258
3	80428	21.7	1258
3	80654	21.8	1258
3	81071	21.9	1258
3	81311	22	1258
3	82143	22.1	1258
3	82372	22.2	1258
3	82983	22.3	1258
3	83220	22.4	1258