version 2
run simple_attack-0-20161228-14:05:46-9315
attr configname simple_attack
attr datetime 20161228-14:05:46
attr experiment simple_attack
attr inifile omnetpp.ini
attr iterationvars ""
attr iterationvars2 $repetition=0
attr measurement ""
attr network Topo
attr processid 9315
attr repetition 0
attr replication #0
attr resultdir results
attr runnumber 0
attr seedset 0

vector 343  Topo.s1.tcp  tcpRcvQueueBytes  ETV
vector 330  Topo.s1.tcp  "advertised window"  ETV
vector 329  Topo.s1.tcp  "receive window"  ETV
vector 332  Topo.s1.tcp  "sent ack"  ETV
vector 273  Topo.s1.networkLayer.arp  sentReq:vector  ETV
attr title  "ARP request sent, vector"
vector 284  Topo.s1.eth[0].encap  encapPk:vector(packetBytes)  ETV
attr interpolationmode  none
attr source  encapPk
attr title  "packets encapsulated, vector(packetBytes)"
vector 280  Topo.s1.eth[0].mac  rxPkFromHL:vector(packetBytes)  ETV
attr interpolationmode  none
attr source  rxPkFromHL
attr title  "packet bytes from higher layer, vector(packetBytes)"
vector 275  Topo.s1.eth[0].mac  txPk:vector(packetBytes)  ETV
attr interpolationmode  none
attr source  txPk
attr title  "packets transmitted, vector(packetBytes)"
vector 293  Topo.controller.eth[0].mac  rxPkOk:vector(packetBytes)  ETV
attr interpolationmode  none
attr source  rxPkOk
attr title  "packets received OK, vector(packetBytes)"
vector 294  Topo.controller.eth[0].mac  passedUpPk:vector(packetBytes)  ETV
attr interpolationmode  none
attr source  packetSentToUpper
attr title  "packets passed to higher layer, vector(packetBytes)"
vector 302  Topo.controller.eth[0].encap  decapPk:vector(packetBytes)  ETV
attr interpolationmode  none
attr source  decapPk
attr title  "packets decapsulated, vector(packetBytes)"
vector 288  Topo.controller.networkLayer.arp  sentReply:vector  ETV
attr title  "ARP replies sent, vector"
vector 301  Topo.controller.eth[0].encap  encapPk:vector(packetBytes)  ETV
attr interpolationmode  none
attr source  encapPk
attr title  "packets encapsulated, vector(packetBytes)"
vector 297  Topo.controller.eth[0].mac  rxPkFromHL:vector(packetBytes)  ETV
attr interpolationmode  none
attr source  rxPkFromHL
attr title  "packet bytes from higher layer, vector(packetBytes)"
vector 292  Topo.controller.eth[0].mac  txPk:vector(packetBytes)  ETV
attr interpolationmode  none
attr source  txPk
attr title  "packets transmitted, vector(packetBytes)"
vector 276  Topo.s1.eth[0].mac  rxPkOk:vector(packetBytes)  ETV
attr interpolationmode  none
attr source  rxPkOk
attr title  "packets received OK, vector(packetBytes)"
vector 277  Topo.s1.eth[0].mac  passedUpPk:vector(packetBytes)  ETV
attr interpolationmode  none
attr source  packetSentToUpper
attr title  "packets passed to higher layer, vector(packetBytes)"
vector 285  Topo.s1.eth[0].encap  decapPk:vector(packetBytes)  ETV
attr interpolationmode  none
attr source  decapPk
attr title  "packets decapsulated, vector(packetBytes)"
vector 309  Topo.controller.tcp  "rcvd seq"  ETV
vector 310  Topo.controller.tcp  "rcvd ack"  ETV
vector 306  Topo.controller.tcp  "advertised window"  ETV
vector 304  Topo.controller.tcp  "send window"  ETV
vector 319  Topo.controller.tcp  tcpRcvQueueBytes  ETV
vector 305  Topo.controller.tcp  "receive window"  ETV
vector 308  Topo.controller.tcp  "sent ack"  ETV
vector 333  Topo.s1.tcp  "rcvd seq"  ETV
vector 334  Topo.s1.tcp  "rcvd ack"  ETV
vector 328  Topo.s1.tcp  "send window"  ETV
vector 311  Topo.controller.tcp  "unacked bytes"  ETV
vector 307  Topo.controller.tcp  "sent seq"  ETV
vector 336  Topo.s1.tcp  "rcvd dupAcks"  ETV
vector 331  Topo.s1.tcp  "sent seq"  ETV
vector 335  Topo.s1.tcp  "unacked bytes"  ETV
vector 323  Topo.controller.tcp  "measured RTT"  ETV
vector 324  Topo.controller.tcp  "smoothed RTT"  ETV
vector 325  Topo.controller.tcp  RTTVAR  ETV
vector 326  Topo.controller.tcp  RTO  ETV
vector 321  Topo.controller.tcp  cwnd  ETV
vector 312  Topo.controller.tcp  "rcvd dupAcks"  ETV
vector 347  Topo.s1.tcp  "measured RTT"  ETV
vector 348  Topo.s1.tcp  "smoothed RTT"  ETV
vector 349  Topo.s1.tcp  RTTVAR  ETV
vector 350  Topo.s1.tcp  RTO  ETV
vector 345  Topo.s1.tcp  cwnd  ETV
vector 1  Topo.client1.udpApp[0]  sentPk:vector(packetBytes)  ETV
attr interpolationmode  none
attr source  sentPk
attr title  "packets sent, vector(packetBytes)"
vector 3  Topo.client1.udp  sentPk:vector(packetBytes)  ETV
attr interpolationmode  none
attr source  sentPk
attr title  "packets sent, vector(packetBytes)"
vector 4  Topo.client1.udp  sentPk:vector(count)  ETV
attr interpolationmode  none
attr source  sentPk
attr title  "packets sent, vector(count)"
vector 11  Topo.client1.networkLayer.arp  sentReq:vector  ETV
attr title  "ARP request sent, vector"
vector 25  Topo.client1.eth[0].encap  encapPk:vector(packetBytes)  ETV
attr interpolationmode  none
attr source  encapPk
attr title  "packets encapsulated, vector(packetBytes)"
vector 21  Topo.client1.eth[0].mac  rxPkFromHL:vector(packetBytes)  ETV
attr interpolationmode  none
attr source  rxPkFromHL
attr title  "packet bytes from higher layer, vector(packetBytes)"
vector 16  Topo.client1.eth[0].mac  txPk:vector(packetBytes)  ETV
attr interpolationmode  none
attr source  txPk
attr title  "packets transmitted, vector(packetBytes)"
vector 197  Topo.s1.etherMAC[0]  rxPkOk:vector(packetBytes)  ETV
attr interpolationmode  none
attr source  rxPkOk
attr title  "packets received OK, vector(packetBytes)"
vector 198  Topo.s1.etherMAC[0]  passedUpPk:vector(packetBytes)  ETV
attr interpolationmode  none
attr source  packetSentToUpper
attr title  "packets passed to higher layer, vector(packetBytes)"
vector 212  Topo.s1.etherMAC[1]  rxPkFromHL:vector(packetBytes)  ETV
attr interpolationmode  none
attr source  rxPkFromHL
attr title  "packet bytes from higher layer, vector(packetBytes)"
vector 223  Topo.s1.etherMAC[2]  rxPkFromHL:vector(packetBytes)  ETV
attr interpolationmode  none
attr source  rxPkFromHL
attr title  "packet bytes from higher layer, vector(packetBytes)"
vector 234  Topo.s1.etherMAC[3]  rxPkFromHL:vector(packetBytes)  ETV
attr interpolationmode  none
attr source  rxPkFromHL
attr title  "packet bytes from higher layer, vector(packetBytes)"
vector 245  Topo.s1.etherMAC[4]  rxPkFromHL:vector(packetBytes)  ETV
attr interpolationmode  none
attr source  rxPkFromHL
attr title  "packet bytes from higher layer, vector(packetBytes)"
vector 256  Topo.s1.etherMAC[5]  rxPkFromHL:vector(packetBytes)  ETV
attr interpolationmode  none
attr source  rxPkFromHL
attr title  "packet bytes from higher layer, vector(packetBytes)"
vector 267  Topo.s1.etherMAC[6]  rxPkFromHL:vector(packetBytes)  ETV
attr interpolationmode  none
attr source  rxPkFromHL
attr title  "packet bytes from higher layer, vector(packetBytes)"
vector 207  Topo.s1.etherMAC[1]  txPk:vector(packetBytes)  ETV
attr interpolationmode  none
attr source  txPk
attr title  "packets transmitted, vector(packetBytes)"
vector 218  Topo.s1.etherMAC[2]  txPk:vector(packetBytes)  ETV
attr interpolationmode  none
attr source  txPk
attr title  "packets transmitted, vector(packetBytes)"
vector 229  Topo.s1.etherMAC[3]  txPk:vector(packetBytes)  ETV
attr interpolationmode  none
attr source  txPk
attr title  "packets transmitted, vector(packetBytes)"
vector 240  Topo.s1.etherMAC[4]  txPk:vector(packetBytes)  ETV
attr interpolationmode  none
attr source  txPk
attr title  "packets transmitted, vector(packetBytes)"
vector 251  Topo.s1.etherMAC[5]  txPk:vector(packetBytes)  ETV
attr interpolationmode  none
attr source  txPk
attr title  "packets transmitted, vector(packetBytes)"
vector 262  Topo.s1.etherMAC[6]  txPk:vector(packetBytes)  ETV
attr interpolationmode  none
attr source  txPk
attr title  "packets transmitted, vector(packetBytes)"
vector 45  Topo.client2.eth[0].mac  rxPkOk:vector(packetBytes)  ETV
attr interpolationmode  none
attr source  rxPkOk
attr title  "packets received OK, vector(packetBytes)"
vector 46  Topo.client2.eth[0].mac  passedUpPk:vector(packetBytes)  ETV
attr interpolationmode  none
attr source  packetSentToUpper
attr title  "packets passed to higher layer, vector(packetBytes)"
vector 73  Topo.client3.eth[0].mac  rxPkOk:vector(packetBytes)  ETV
attr interpolationmode  none
attr source  rxPkOk
attr title  "packets received OK, vector(packetBytes)"
vector 74  Topo.client3.eth[0].mac  passedUpPk:vector(packetBytes)  ETV
attr interpolationmode  none
attr source  packetSentToUpper
attr title  "packets passed to higher layer, vector(packetBytes)"
vector 101  Topo.client4.eth[0].mac  rxPkOk:vector(packetBytes)  ETV
attr interpolationmode  none
attr source  rxPkOk
attr title  "packets received OK, vector(packetBytes)"
vector 102  Topo.client4.eth[0].mac  passedUpPk:vector(packetBytes)  ETV
attr interpolationmode  none
attr source  packetSentToUpper
attr title  "packets passed to higher layer, vector(packetBytes)"
vector 129  Topo.server1.eth[0].mac  rxPkOk:vector(packetBytes)  ETV
attr interpolationmode  none
attr source  rxPkOk
attr title  "packets received OK, vector(packetBytes)"
vector 130  Topo.server1.eth[0].mac  passedUpPk:vector(packetBytes)  ETV
attr interpolationmode  none
attr source  packetSentToUpper
attr title  "packets passed to higher layer, vector(packetBytes)"
vector 157  Topo.server2.eth[0].mac  rxPkOk:vector(packetBytes)  ETV
attr interpolationmode  none
attr source  rxPkOk
attr title  "packets received OK, vector(packetBytes)"
vector 158  Topo.server2.eth[0].mac  passedUpPk:vector(packetBytes)  ETV
attr interpolationmode  none
attr source  packetSentToUpper
attr title  "packets passed to higher layer, vector(packetBytes)"
vector 185  Topo.server3.eth[0].mac  rxPkOk:vector(packetBytes)  ETV
attr interpolationmode  none
attr source  rxPkOk
attr title  "packets received OK, vector(packetBytes)"
vector 186  Topo.server3.eth[0].mac  passedUpPk:vector(packetBytes)  ETV
attr interpolationmode  none
attr source  packetSentToUpper
attr title  "packets passed to higher layer, vector(packetBytes)"
vector 54  Topo.client2.eth[0].encap  decapPk:vector(packetBytes)  ETV
attr interpolationmode  none
attr source  decapPk
attr title  "packets decapsulated, vector(packetBytes)"
vector 82  Topo.client3.eth[0].encap  decapPk:vector(packetBytes)  ETV
attr interpolationmode  none
attr source  decapPk
attr title  "packets decapsulated, vector(packetBytes)"
vector 110  Topo.client4.eth[0].encap  decapPk:vector(packetBytes)  ETV
attr interpolationmode  none
attr source  decapPk
attr title  "packets decapsulated, vector(packetBytes)"
vector 138  Topo.server1.eth[0].encap  decapPk:vector(packetBytes)  ETV
attr interpolationmode  none
attr source  decapPk
attr title  "packets decapsulated, vector(packetBytes)"
vector 166  Topo.server2.eth[0].encap  decapPk:vector(packetBytes)  ETV
attr interpolationmode  none
attr source  decapPk
attr title  "packets decapsulated, vector(packetBytes)"
vector 194  Topo.server3.eth[0].encap  decapPk:vector(packetBytes)  ETV
attr interpolationmode  none
attr source  decapPk
attr title  "packets decapsulated, vector(packetBytes)"
vector 124  Topo.server1.networkLayer.arp  sentReply:vector  ETV
attr title  "ARP replies sent, vector"
vector 137  Topo.server1.eth[0].encap  encapPk:vector(packetBytes)  ETV
attr interpolationmode  none
attr source  encapPk
attr title  "packets encapsulated, vector(packetBytes)"
vector 133  Topo.server1.eth[0].mac  rxPkFromHL:vector(packetBytes)  ETV
attr interpolationmode  none
attr source  rxPkFromHL
attr title  "packet bytes from higher layer, vector(packetBytes)"
vector 128  Topo.server1.eth[0].mac  txPk:vector(packetBytes)  ETV
attr interpolationmode  none
attr source  txPk
attr title  "packets transmitted, vector(packetBytes)"
vector 241  Topo.s1.etherMAC[4]  rxPkOk:vector(packetBytes)  ETV
attr interpolationmode  none
attr source  rxPkOk
attr title  "packets received OK, vector(packetBytes)"
vector 242  Topo.s1.etherMAC[4]  passedUpPk:vector(packetBytes)  ETV
attr interpolationmode  none
attr source  packetSentToUpper
attr title  "packets passed to higher layer, vector(packetBytes)"
vector 201  Topo.s1.etherMAC[0]  rxPkFromHL:vector(packetBytes)  ETV
attr interpolationmode  none
attr source  rxPkFromHL
attr title  "packet bytes from higher layer, vector(packetBytes)"
vector 196  Topo.s1.etherMAC[0]  txPk:vector(packetBytes)  ETV
attr interpolationmode  none
attr source  txPk
attr title  "packets transmitted, vector(packetBytes)"
vector 17  Topo.client1.eth[0].mac  rxPkOk:vector(packetBytes)  ETV
attr interpolationmode  none
attr source  rxPkOk
attr title  "packets received OK, vector(packetBytes)"
vector 18  Topo.client1.eth[0].mac  passedUpPk:vector(packetBytes)  ETV
attr interpolationmode  none
attr source  packetSentToUpper
attr title  "packets passed to higher layer, vector(packetBytes)"
vector 26  Topo.client1.eth[0].encap  decapPk:vector(packetBytes)  ETV
attr interpolationmode  none
attr source  decapPk
attr title  "packets decapsulated, vector(packetBytes)"
vector 117  Topo.server1.udp  rcvdPk:vector(packetBytes)  ETV
attr interpolationmode  none
attr source  rcvdPk
attr title  "packets received, vector(packetBytes)"
vector 122  Topo.server1.udp  rcvdPkLifetime:vector  ETV
attr interpolationmode  none
attr source  messageAge(rcvdPk)
attr title  "received packet lifetime, vector"
attr unit  s
vector 121  Topo.server1.udp  delay:vector  ETV
attr interpolationmode  none
attr source  delay
attr title  "delay, vector"
vector 118  Topo.server1.udp  passedUpPk:vector(count)  ETV
attr interpolationmode  none
attr title  "packets passed up, vector(count)"
vector 112  Topo.server1.udpApp[0]  rcvdPk:vector(packetBytes)  ETV
attr interpolationmode  none
attr source  rcvdPk
attr title  "packets received, vector(packetBytes)"
vector 113  Topo.server1.udpApp[0]  rcvdPk:vector(count)  ETV
attr interpolationmode  none
attr source  rcvdPk
attr title  "packets received, vector(count)"
vector 85  Topo.client4.udpApp[0]  sentPk:vector(packetBytes)  ETV
attr interpolationmode  none
attr source  sentPk
attr title  "packets sent, vector(packetBytes)"
vector 87  Topo.client4.udp  sentPk:vector(packetBytes)  ETV
attr interpolationmode  none
attr source  sentPk
attr title  "packets sent, vector(packetBytes)"
vector 88  Topo.client4.udp  sentPk:vector(count)  ETV
attr interpolationmode  none
attr source  sentPk
attr title  "packets sent, vector(count)"
vector 95  Topo.client4.networkLayer.arp  sentReq:vector  ETV
attr title  "ARP request sent, vector"
vector 109  Topo.client4.eth[0].encap  encapPk:vector(packetBytes)  ETV
attr interpolationmode  none
attr source  encapPk
attr title  "packets encapsulated, vector(packetBytes)"
vector 105  Topo.client4.eth[0].mac  rxPkFromHL:vector(packetBytes)  ETV
attr interpolationmode  none
attr source  rxPkFromHL
attr title  "packet bytes from higher layer, vector(packetBytes)"
vector 100  Topo.client4.eth[0].mac  txPk:vector(packetBytes)  ETV
attr interpolationmode  none
attr source  txPk
attr title  "packets transmitted, vector(packetBytes)"
vector 230  Topo.s1.etherMAC[3]  rxPkOk:vector(packetBytes)  ETV
attr interpolationmode  none
attr source  rxPkOk
attr title  "packets received OK, vector(packetBytes)"
vector 231  Topo.s1.etherMAC[3]  passedUpPk:vector(packetBytes)  ETV
attr interpolationmode  none
attr source  packetSentToUpper
attr title  "packets passed to higher layer, vector(packetBytes)"
vector 180  Topo.server3.networkLayer.arp  sentReply:vector  ETV
attr title  "ARP replies sent, vector"
vector 193  Topo.server3.eth[0].encap  encapPk:vector(packetBytes)  ETV
attr interpolationmode  none
attr source  encapPk
attr title  "packets encapsulated, vector(packetBytes)"
vector 189  Topo.server3.eth[0].mac  rxPkFromHL:vector(packetBytes)  ETV
attr interpolationmode  none
attr source  rxPkFromHL
attr title  "packet bytes from higher layer, vector(packetBytes)"
vector 184  Topo.server3.eth[0].mac  txPk:vector(packetBytes)  ETV
attr interpolationmode  none
attr source  txPk
attr title  "packets transmitted, vector(packetBytes)"
vector 263  Topo.s1.etherMAC[6]  rxPkOk:vector(packetBytes)  ETV
attr interpolationmode  none
attr source  rxPkOk
attr title  "packets received OK, vector(packetBytes)"
vector 264  Topo.s1.etherMAC[6]  passedUpPk:vector(packetBytes)  ETV
attr interpolationmode  none
attr source  packetSentToUpper
attr title  "packets passed to higher layer, vector(packetBytes)"
vector 173  Topo.server3.udp  rcvdPk:vector(packetBytes)  ETV
attr interpolationmode  none
attr source  rcvdPk
attr title  "packets received, vector(packetBytes)"
vector 178  Topo.server3.udp  rcvdPkLifetime:vector  ETV
attr interpolationmode  none
attr source  messageAge(rcvdPk)
attr title  "received packet lifetime, vector"
attr unit  s
vector 177  Topo.server3.udp  delay:vector  ETV
attr interpolationmode  none
attr source  delay
attr title  "delay, vector"
vector 174  Topo.server3.udp  passedUpPk:vector(count)  ETV
attr interpolationmode  none
attr title  "packets passed up, vector(count)"
vector 168  Topo.server3.udpApp[0]  rcvdPk:vector(packetBytes)  ETV
attr interpolationmode  none
attr source  rcvdPk
attr title  "packets received, vector(packetBytes)"
vector 169  Topo.server3.udpApp[0]  rcvdPk:vector(count)  ETV
attr interpolationmode  none
attr source  rcvdPk
attr title  "packets received, vector(count)"
vector 29  Topo.client2.udpApp[0]  sentPk:vector(packetBytes)  ETV
attr interpolationmode  none
attr source  sentPk
attr title  "packets sent, vector(packetBytes)"
vector 31  Topo.client2.udp  sentPk:vector(packetBytes)  ETV
attr interpolationmode  none
attr source  sentPk
attr title  "packets sent, vector(packetBytes)"
vector 32  Topo.client2.udp  sentPk:vector(count)  ETV
attr interpolationmode  none
attr source  sentPk
attr title  "packets sent, vector(count)"
vector 39  Topo.client2.networkLayer.arp  sentReq:vector  ETV
attr title  "ARP request sent, vector"
vector 53  Topo.client2.eth[0].encap  encapPk:vector(packetBytes)  ETV
attr interpolationmode  none
attr source  encapPk
attr title  "packets encapsulated, vector(packetBytes)"
vector 49  Topo.client2.eth[0].mac  rxPkFromHL:vector(packetBytes)  ETV
attr interpolationmode  none
attr source  rxPkFromHL
attr title  "packet bytes from higher layer, vector(packetBytes)"
vector 44  Topo.client2.eth[0].mac  txPk:vector(packetBytes)  ETV
attr interpolationmode  none
attr source  txPk
attr title  "packets transmitted, vector(packetBytes)"
vector 208  Topo.s1.etherMAC[1]  rxPkOk:vector(packetBytes)  ETV
attr interpolationmode  none
attr source  rxPkOk
attr title  "packets received OK, vector(packetBytes)"
vector 209  Topo.s1.etherMAC[1]  passedUpPk:vector(packetBytes)  ETV
attr interpolationmode  none
attr source  packetSentToUpper
attr title  "packets passed to higher layer, vector(packetBytes)"
vector 152  Topo.server2.networkLayer.arp  sentReply:vector  ETV
attr title  "ARP replies sent, vector"
vector 165  Topo.server2.eth[0].encap  encapPk:vector(packetBytes)  ETV
attr interpolationmode  none
attr source  encapPk
attr title  "packets encapsulated, vector(packetBytes)"
vector 161  Topo.server2.eth[0].mac  rxPkFromHL:vector(packetBytes)  ETV
attr interpolationmode  none
attr source  rxPkFromHL
attr title  "packet bytes from higher layer, vector(packetBytes)"
vector 156  Topo.server2.eth[0].mac  txPk:vector(packetBytes)  ETV
attr interpolationmode  none
attr source  txPk
attr title  "packets transmitted, vector(packetBytes)"
vector 252  Topo.s1.etherMAC[5]  rxPkOk:vector(packetBytes)  ETV
attr interpolationmode  none
attr source  rxPkOk
attr title  "packets received OK, vector(packetBytes)"
vector 253  Topo.s1.etherMAC[5]  passedUpPk:vector(packetBytes)  ETV
attr interpolationmode  none
attr source  packetSentToUpper
attr title  "packets passed to higher layer, vector(packetBytes)"
vector 145  Topo.server2.udp  rcvdPk:vector(packetBytes)  ETV
attr interpolationmode  none
attr source  rcvdPk
attr title  "packets received, vector(packetBytes)"
vector 150  Topo.server2.udp  rcvdPkLifetime:vector  ETV
attr interpolationmode  none
attr source  messageAge(rcvdPk)
attr title  "received packet lifetime, vector"
attr unit  s
vector 149  Topo.server2.udp  delay:vector  ETV
attr interpolationmode  none
attr source  delay
attr title  "delay, vector"
vector 146  Topo.server2.udp  passedUpPk:vector(count)  ETV
attr interpolationmode  none
attr title  "packets passed up, vector(count)"
vector 140  Topo.server2.udpApp[0]  rcvdPk:vector(packetBytes)  ETV
attr interpolationmode  none
attr source  rcvdPk
attr title  "packets received, vector(packetBytes)"
vector 141  Topo.server2.udpApp[0]  rcvdPk:vector(count)  ETV
attr interpolationmode  none
attr source  rcvdPk
attr title  "packets received, vector(count)"
vector 170  Topo.server3.udpApp[0]  rcvdAppPkt:vector  ETV
attr interpolationmode  none
attr source  rcvdAppPkt
attr title  "packets received during sec, vector"
vector 114  Topo.server1.udpApp[0]  rcvdAppPkt:vector  ETV
attr interpolationmode  none
attr source  rcvdAppPkt
attr title  "packets received during sec, vector"
vector 142  Topo.server2.udpApp[0]  rcvdAppPkt:vector  ETV
attr interpolationmode  none
attr source  rcvdAppPkt
attr title  "packets received during sec, vector"
vector 57  Topo.client3.udpApp[0]  sentPk:vector(packetBytes)  ETV
attr interpolationmode  none
attr source  sentPk
attr title  "packets sent, vector(packetBytes)"
vector 59  Topo.client3.udp  sentPk:vector(packetBytes)  ETV
attr interpolationmode  none
attr source  sentPk
attr title  "packets sent, vector(packetBytes)"
vector 60  Topo.client3.udp  sentPk:vector(count)  ETV
attr interpolationmode  none
attr source  sentPk
attr title  "packets sent, vector(count)"
vector 67  Topo.client3.networkLayer.arp  sentReq:vector  ETV
attr title  "ARP request sent, vector"
vector 81  Topo.client3.eth[0].encap  encapPk:vector(packetBytes)  ETV
attr interpolationmode  none
attr source  encapPk
attr title  "packets encapsulated, vector(packetBytes)"
vector 77  Topo.client3.eth[0].mac  rxPkFromHL:vector(packetBytes)  ETV
attr interpolationmode  none
attr source  rxPkFromHL
attr title  "packet bytes from higher layer, vector(packetBytes)"
vector 72  Topo.client3.eth[0].mac  txPk:vector(packetBytes)  ETV
attr interpolationmode  none
attr source  txPk
attr title  "packets transmitted, vector(packetBytes)"
vector 219  Topo.s1.etherMAC[2]  rxPkOk:vector(packetBytes)  ETV
attr interpolationmode  none
attr source  rxPkOk
attr title  "packets received OK, vector(packetBytes)"
vector 220  Topo.s1.etherMAC[2]  passedUpPk:vector(packetBytes)  ETV
attr interpolationmode  none
attr source  packetSentToUpper
attr title  "packets passed to higher layer, vector(packetBytes)"
1	181	0.1	1250
1	646	0.2	1250
1	1137	0.3	1250
1	1166	0.4	1250
1	1221	0.5	1250
1	1251	0.6	1250
1	1769	0.7	1250
1	1798	0.8	1250
1	1853	0.9	1250
1	1882	1	1250
1	1937	1.1	1250
1	1967	1.2	1250
1	2049	1.3	1250
1	2078	1.4	1250
1	2133	1.5	1250
1	2162	1.6	1250
1	2217	1.7	1250
1	2247	1.8	1250
1	2329	1.9	1250
1	2359	2	1250
1	2877	2.1	1250
1	2906	2.2	1250
1	2961	2.3	1250
1	2991	2.4	1250
1	3073	2.5	1250
1	3102	2.6	1250
1	3157	2.7	1250
1	3186	2.8	1250
1	3241	2.9	1250
1	3271	3	1250
1	3353	3.1	1250
1	3382	3.2	1250
1	3437	3.3	1250
1	3466	3.4	1250
1	3521	3.5	1250
1	3551	3.6	1250
1	3633	3.7	1250
1	3662	3.8	1250
1	3717	3.9	1250
1	3747	4	1250
1	3829	4.1	1250
1	3859	4.2	1250
1	3941	4.3	1250
1	3970	4.4	1250
1	4025	4.5	1250
1	4054	4.6	1250
1	4109	4.7	1250
1	4139	4.8	1250
1	4221	4.9	1250
1	4250	5	1250
1	4305	5.1	1250
1	4334	5.2	1250
1	4389	5.3	1250
1	4419	5.4	1250
1	4501	5.5	1250
1	4530	5.6	1250
1	4585	5.7	1250
1	4614	5.8	1250
1	4669	5.9	1250
1	4700	6	1250
1	4809	6.1	1250
1	4838	6.2	1250
1	4893	6.3	1250
1	4922	6.4	1250
1	4977	6.5	1250
1	5007	6.6	1250
1	5089	6.7	1250
1	5118	6.8	1250
1	5173	6.9	1250
1	5202	7	1250
1	5257	7.1	1250
1	5287	7.2	1250
1	5369	7.3	1250
1	5398	7.4	1250
1	5453	7.5	1250
1	5482	7.6	1250
1	5537	7.7	1250
1	5567	7.8	1250
1	5649	7.9	1250
1	5679	8	1250
1	5761	8.1	1250
1	5790	8.2	1250
1	5845	8.3	1250
1	5875	8.4	1250
1	5957	8.5	1250
1	5986	8.6	1250
1	6041	8.7	1250
1	6070	8.8	1250
1	6125	8.9	1250
1	6155	9	1250
1	6237	9.1	1250
1	6266	9.2	1250
1	6321	9.3	1250
1	6350	9.4	1250
1	6405	9.5	1250
1	6435	9.6	1250
1	6517	9.7	1250
1	6546	9.8	1250
1	6601	9.9	1250
1	6631	10	1250
1	6713	10.1	1250
1	6743	10.2	1250
1	6825	10.3	1250
1	6854	10.4	1250
1	6909	10.5	1250
1	6938	10.6	1250
1	6993	10.7	1250
1	7023	10.8	1250
1	7105	10.9	1250
1	7134	11	1250
1	7189	11.1	1250
1	7218	11.2	1250
1	7273	11.3	1250
1	7303	11.4	1250
1	7385	11.5	1250
1	7414	11.6	1250
1	7469	11.7	1250
1	7498	11.8	1250
1	7553	11.9	1250
1	7584	12	1250
1	7693	12.1	1250
1	7722	12.2	1250
1	7777	12.3	1250
1	7806	12.4	1250
1	7861	12.5	1250
1	7891	12.6	1250
1	7973	12.7	1250
1	8002	12.8	1250
1	8057	12.9	1250
1	8086	13	1250
1	8141	13.1	1250
1	8171	13.2	1250
1	8253	13.3	1250
1	8282	13.4	1250
1	8337	13.5	1250
1	8366	13.6	1250
1	8421	13.7	1250
1	8451	13.8	1250
1	8533	13.9	1250
1	8563	14	1250
1	8645	14.1	1250
1	8674	14.2	1250
1	8729	14.3	1250
1	8759	14.4	1250
1	8841	14.5	1250
1	8870	14.6	1250
1	8925	14.7	1250
1	8954	14.8	1250
1	9009	14.9	1250
1	9039	15	1250
1	9121	15.1	1250
1	9150	15.2	1250
1	9205	15.3	1250
1	9234	15.4	1250
1	9289	15.5	1250
1	9319	15.6	1250
1	9401	15.7	1250
1	9430	15.8	1250
1	9485	15.9	1250
1	9515	16	1250
1	9597	16.1	1250
1	9627	16.2	1250
1	9709	16.3	1250
1	9738	16.4	1250
1	9793	16.5	1250
1	9822	16.6	1250
1	9877	16.7	1250
1	9907	16.8	1250
1	9989	16.9	1250
1	10018	17	1250
1	10073	17.1	1250
1	10102	17.2	1250
1	10157	17.3	1250
1	10187	17.4	1250
1	10269	17.5	1250
1	10298	17.6	1250
1	10353	17.7	1250
1	10382	17.8	1250
1	10437	17.9	1250
1	10468	18	1250
1	10577	18.1	1250
1	10606	18.2	1250
1	10661	18.3	1250
1	10690	18.4	1250
1	10745	18.5	1250
1	10775	18.6	1250
1	10857	18.7	1250
1	10886	18.8	1250
1	10941	18.9	1250
1	10970	19	1250
1	11025	19.1	1250
1	11055	19.2	1250
1	11137	19.3	1250
1	11166	19.4	1250
1	11221	19.5	1250
1	11250	19.6	1250
1	11305	19.7	1250
1	11335	19.8	1250
1	11417	19.9	1250
1	11448	20	1250
1	11736	20.1	1250
1	11765	20.2	1250
1	11820	20.3	1250
1	11851	20.4	1250
1	12139	20.5	1250
1	12168	20.6	1250
1	12223	20.7	1250
1	12273	20.8	1250
1	12514	20.9	1250
1	12544	21	1250
1	12626	21.1	1250
1	12676	21.2	1250
1	12917	21.3	1250
1	12946	21.4	1250
1	13001	21.5	1250
1	13052	21.6	1250
1	13320	21.7	1250
1	13349	21.8	1250
1	13404	21.9	1250
1	13455	22	1250
1	13723	22.1	1250
1	13753	22.2	1250
1	13835	22.3	1250
1	13885	22.4	1250
1	14126	22.5	1250
1	14155	22.6	1250
1	14210	22.7	1250
1	14261	22.8	1250
1	14529	22.9	1250
1	14558	23	1250
1	14613	23.1	1250
1	14663	23.2	1250
1	14904	23.3	1250
1	14934	23.4	1250
1	15016	23.5	1250
1	15066	23.6	1250
1	15307	23.7	1250
1	15336	23.8	1250
1	15391	23.9	1250
1	15443	24	1250
1	15738	24.1	1250
1	15767	24.2	1250
1	15822	24.3	1250
1	15872	24.4	1250
1	16113	24.5	1250
1	16143	24.6	1250
1	16225	24.7	1250
1	16275	24.8	1250
1	16516	24.9	1250
1	16545	25	1250
1	16600	25.1	1250
1	16651	25.2	1250
1	16919	25.3	1250
1	16948	25.4	1250
1	17003	25.5	1250
1	17053	25.6	1250
1	17294	25.7	1250
1	17324	25.8	1250
1	17406	25.9	1250
1	17457	26	1250
1	17725	26.1	1250
1	17754	26.2	1250
1	17809	26.3	1250
1	17860	26.4	1250
1	18128	26.5	1250
1	18157	26.6	1250
1	18212	26.7	1250
1	18262	26.8	1250
1	18503	26.9	1250
1	18533	27	1250
1	18615	27.1	1250
1	18665	27.2	1250
1	18906	27.3	1250
1	18935	27.4	1250
1	18990	27.5	1250
1	19041	27.6	1250
1	19309	27.7	1250
1	19338	27.8	1250
1	19393	27.9	1250
1	19444	28	1250
1	19712	28.1	1250
1	19742	28.2	1250
1	19824	28.3	1250
1	19874	28.4	1250
1	20115	28.5	1250
1	20144	28.6	1250
1	20199	28.7	1250
1	20250	28.8	1250
1	20518	28.9	1250
1	20547	29	1250
1	20602	29.1	1250
1	20652	29.2	1250
1	20893	29.3	1250
1	20923	29.4	1250
1	21005	29.5	1250
1	21055	29.6	1250
1	21296	29.7	1250
1	21325	29.8	1250
1	21380	29.9	1250
1	21433	30	1250
1	21763	30.1	1250
1	21856	30.2	1250
1	22170	30.3	1250
1	22220	30.4	1250
1	22630	30.5	1250
1	22660	30.6	1250
1	22806	30.7	1250
1	22856	30.8	1250
1	23097	30.9	1250
1	23127	31	1250
1	23182	31.1	1250
1	23233	31.2	1250
1	23670	31.3	1250
1	23699	31.4	1250
1	23754	31.5	1250
1	23804	31.6	1250
1	24045	31.7	1250
1	24075	31.8	1250
1	24157	31.9	1250
1	24208	32	1250
1	24540	32.1	1250
1	24569	32.2	1250
1	24624	32.3	1250
1	24675	32.4	1250
1	24943	32.5	1250
1	24972	32.6	1250
1	25027	32.7	1250
1	25077	32.8	1250
1	25318	32.9	1250
1	25348	33	1250
1	25430	33.1	1250
1	25480	33.2	1250
1	25721	33.3	1250
1	25750	33.4	1250
1	25805	33.5	1250
1	25856	33.6	1250
1	26124	33.7	1250
1	26153	33.8	1250
1	26208	33.9	1250
1	26259	34	1250
1	26696	34.1	1250
1	26726	34.2	1250
1	26808	34.3	1250
1	26858	34.4	1250
1	27099	34.5	1250
1	27128	34.6	1250
1	27183	34.7	1250
1	27234	34.8	1250
1	27502	34.9	1250
1	27531	35	1250
1	27586	35.1	1250
1	27636	35.2	1250
3	185	0.1	1258
3	652	0.2	1258
3	1139	0.3	1258
3	1170	0.4	1258
3	1223	0.5	1258
3	1259	0.6	1258
3	1771	0.7	1258
3	1802	0.8	1258
3	1855	0.9	1258
3	1886	1	1258
3	1939	1.1	1258
3	1973	1.2	1258
3	2051	1.3	1258
3	2082	1.4	1258
3	2135	1.5	1258
3	2166	1.6	1258
3	2219	1.7	1258
3	2253	1.8	1258
3	2331	1.9	1258
3	2367	2	1258
3	2879	2.1	1258
3	2910	2.2	1258
3	2963	2.3	1258
3	2997	2.4	1258
3	3075	2.5	1258
3	3106	2.6	1258
3	3159	2.7	1258
3	3190	2.8	1258
3	3243	2.9	1258
3	3277	3	1258
3	3355	3.1	1258
3	3386	3.2	1258
3	3439	3.3	1258
3	3470	3.4	1258
3	3523	3.5	1258
3	3557	3.6	1258
3	3635	3.7	1258
3	3666	3.8	1258
3	3719	3.9	1258
3	3753	4	1258
3	3831	4.1	1258
3	3865	4.2	1258
3	3943	4.3	1258
3	3974	4.4	1258
3	4027	4.5	1258
3	4058	4.6	1258
3	4111	4.7	1258
3	4145	4.8	1258
3	4223	4.9	1258
3	4254	5	1258
3	4307	5.1	1258
3	4338	5.2	1258
3	4391	5.3	1258
3	4425	5.4	1258
3	4503	5.5	1258
3	4534	5.6	1258
3	4587	5.7	1258
3	4618	5.8	1258
3	4671	5.9	1258
3	4708	6	1258
3	4811	6.1	1258
3	4842	6.2	1258
3	4895	6.3	1258
3	4926	6.4	1258
3	4979	6.5	1258
3	5013	6.6	1258
3	5091	6.7	1258
3	5122	6.8	1258
3	5175	6.9	1258
3	5206	7	1258
3	5259	7.1	1258
3	5293	7.2	1258
3	5371	7.3	1258
3	5402	7.4	1258
3	5455	7.5	1258
3	5486	7.6	1258
3	5539	7.7	1258
3	5573	7.8	1258
3	5651	7.9	1258
3	5685	8	1258
3	5763	8.1	1258
3	5794	8.2	1258
3	5847	8.3	1258
3	5881	8.4	1258
3	5959	8.5	1258
3	5990	8.6	1258
3	6043	8.7	1258