file 13492514 1479114669                                        
version 2
run simple_attack_host-0-20161114-10:10:59-12681
attr configname simple_attack_host
attr datetime 20161114-10:10:59
attr experiment simple_attack_host
attr inifile omnetpp.ini
attr iterationvars ""
attr iterationvars2 $repetition=0
attr measurement ""
attr network Topo
attr processid 12681
attr repetition 0
attr replication #0
attr resultdir results
attr runnumber 0
attr seedset 0

vector 329  Topo.s1.tcp  tcpRcvQueueBytes  ETV
vector 316  Topo.s1.tcp  "advertised window"  ETV
vector 315  Topo.s1.tcp  "receive window"  ETV
vector 318  Topo.s1.tcp  "sent ack"  ETV
vector 259  Topo.s1.networkLayer.arp  sentReq:vector  ETV
attr title  "ARP request sent, vector"
vector 270  Topo.s1.eth[0].encap  encapPk:vector(packetBytes)  ETV
attr interpolationmode  none
attr source  encapPk
attr title  "packets encapsulated, vector(packetBytes)"
vector 266  Topo.s1.eth[0].mac  rxPkFromHL:vector(packetBytes)  ETV
attr interpolationmode  none
attr source  rxPkFromHL
attr title  "packet bytes from higher layer, vector(packetBytes)"
vector 261  Topo.s1.eth[0].mac  txPk:vector(packetBytes)  ETV
attr interpolationmode  none
attr source  txPk
attr title  "packets transmitted, vector(packetBytes)"
vector 279  Topo.controller.eth[0].mac  rxPkOk:vector(packetBytes)  ETV
attr interpolationmode  none
attr source  rxPkOk
attr title  "packets received OK, vector(packetBytes)"
vector 280  Topo.controller.eth[0].mac  passedUpPk:vector(packetBytes)  ETV
attr interpolationmode  none
attr source  packetSentToUpper
attr title  "packets passed to higher layer, vector(packetBytes)"
vector 288  Topo.controller.eth[0].encap  decapPk:vector(packetBytes)  ETV
attr interpolationmode  none
attr source  decapPk
attr title  "packets decapsulated, vector(packetBytes)"
vector 274  Topo.controller.networkLayer.arp  sentReply:vector  ETV
attr title  "ARP replies sent, vector"
vector 287  Topo.controller.eth[0].encap  encapPk:vector(packetBytes)  ETV
attr interpolationmode  none
attr source  encapPk
attr title  "packets encapsulated, vector(packetBytes)"
vector 283  Topo.controller.eth[0].mac  rxPkFromHL:vector(packetBytes)  ETV
attr interpolationmode  none
attr source  rxPkFromHL
attr title  "packet bytes from higher layer, vector(packetBytes)"
vector 278  Topo.controller.eth[0].mac  txPk:vector(packetBytes)  ETV
attr interpolationmode  none
attr source  txPk
attr title  "packets transmitted, vector(packetBytes)"
vector 262  Topo.s1.eth[0].mac  rxPkOk:vector(packetBytes)  ETV
attr interpolationmode  none
attr source  rxPkOk
attr title  "packets received OK, vector(packetBytes)"
vector 263  Topo.s1.eth[0].mac  passedUpPk:vector(packetBytes)  ETV
attr interpolationmode  none
attr source  packetSentToUpper
attr title  "packets passed to higher layer, vector(packetBytes)"
vector 271  Topo.s1.eth[0].encap  decapPk:vector(packetBytes)  ETV
attr interpolationmode  none
attr source  decapPk
attr title  "packets decapsulated, vector(packetBytes)"
vector 295  Topo.controller.tcp  "rcvd seq"  ETV
vector 296  Topo.controller.tcp  "rcvd ack"  ETV
vector 292  Topo.controller.tcp  "advertised window"  ETV
vector 290  Topo.controller.tcp  "send window"  ETV
vector 305  Topo.controller.tcp  tcpRcvQueueBytes  ETV
vector 291  Topo.controller.tcp  "receive window"  ETV
vector 294  Topo.controller.tcp  "sent ack"  ETV
vector 319  Topo.s1.tcp  "rcvd seq"  ETV
vector 320  Topo.s1.tcp  "rcvd ack"  ETV
vector 314  Topo.s1.tcp  "send window"  ETV
vector 297  Topo.controller.tcp  "unacked bytes"  ETV
vector 293  Topo.controller.tcp  "sent seq"  ETV
vector 322  Topo.s1.tcp  "rcvd dupAcks"  ETV
vector 317  Topo.s1.tcp  "sent seq"  ETV
vector 321  Topo.s1.tcp  "unacked bytes"  ETV
vector 309  Topo.controller.tcp  "measured RTT"  ETV
vector 310  Topo.controller.tcp  "smoothed RTT"  ETV
vector 311  Topo.controller.tcp  RTTVAR  ETV
vector 312  Topo.controller.tcp  RTO  ETV
vector 307  Topo.controller.tcp  cwnd  ETV
vector 298  Topo.controller.tcp  "rcvd dupAcks"  ETV
vector 333  Topo.s1.tcp  "measured RTT"  ETV
vector 334  Topo.s1.tcp  "smoothed RTT"  ETV
vector 335  Topo.s1.tcp  RTTVAR  ETV
vector 336  Topo.s1.tcp  RTO  ETV
vector 331  Topo.s1.tcp  cwnd  ETV
vector 1  Topo.client1.udpApp[0]  sentPk:vector(packetBytes)  ETV
attr interpolationmode  none
attr source  sentPk
attr title  "packets sent, vector(packetBytes)"
vector 3  Topo.client1.udp  sentPk:vector(packetBytes)  ETV
attr interpolationmode  none
attr source  sentPk
attr title  "packets sent, vector(packetBytes)"
vector 4  Topo.client1.udp  sentPk:vector(count)  ETV
attr interpolationmode  none
attr source  sentPk
attr title  "packets sent, vector(count)"
vector 9  Topo.client1.networkLayer.arp  sentReq:vector  ETV
attr title  "ARP request sent, vector"
vector 23  Topo.client1.eth[0].encap  encapPk:vector(packetBytes)  ETV
attr interpolationmode  none
attr source  encapPk
attr title  "packets encapsulated, vector(packetBytes)"
vector 19  Topo.client1.eth[0].mac  rxPkFromHL:vector(packetBytes)  ETV
attr interpolationmode  none
attr source  rxPkFromHL
attr title  "packet bytes from higher layer, vector(packetBytes)"
vector 14  Topo.client1.eth[0].mac  txPk:vector(packetBytes)  ETV
attr interpolationmode  none
attr source  txPk
attr title  "packets transmitted, vector(packetBytes)"
vector 183  Topo.s1.etherMAC[0]  rxPkOk:vector(packetBytes)  ETV
attr interpolationmode  none
attr source  rxPkOk
attr title  "packets received OK, vector(packetBytes)"
vector 184  Topo.s1.etherMAC[0]  passedUpPk:vector(packetBytes)  ETV
attr interpolationmode  none
attr source  packetSentToUpper
attr title  "packets passed to higher layer, vector(packetBytes)"
vector 198  Topo.s1.etherMAC[1]  rxPkFromHL:vector(packetBytes)  ETV
attr interpolationmode  none
attr source  rxPkFromHL
attr title  "packet bytes from higher layer, vector(packetBytes)"
vector 209  Topo.s1.etherMAC[2]  rxPkFromHL:vector(packetBytes)  ETV
attr interpolationmode  none
attr source  rxPkFromHL
attr title  "packet bytes from higher layer, vector(packetBytes)"
vector 220  Topo.s1.etherMAC[3]  rxPkFromHL:vector(packetBytes)  ETV
attr interpolationmode  none
attr source  rxPkFromHL
attr title  "packet bytes from higher layer, vector(packetBytes)"
vector 231  Topo.s1.etherMAC[4]  rxPkFromHL:vector(packetBytes)  ETV
attr interpolationmode  none
attr source  rxPkFromHL
attr title  "packet bytes from higher layer, vector(packetBytes)"
vector 242  Topo.s1.etherMAC[5]  rxPkFromHL:vector(packetBytes)  ETV
attr interpolationmode  none
attr source  rxPkFromHL
attr title  "packet bytes from higher layer, vector(packetBytes)"
vector 253  Topo.s1.etherMAC[6]  rxPkFromHL:vector(packetBytes)  ETV
attr interpolationmode  none
attr source  rxPkFromHL
attr title  "packet bytes from higher layer, vector(packetBytes)"
vector 193  Topo.s1.etherMAC[1]  txPk:vector(packetBytes)  ETV
attr interpolationmode  none
attr source  txPk
attr title  "packets transmitted, vector(packetBytes)"
vector 204  Topo.s1.etherMAC[2]  txPk:vector(packetBytes)  ETV
attr interpolationmode  none
attr source  txPk
attr title  "packets transmitted, vector(packetBytes)"
vector 215  Topo.s1.etherMAC[3]  txPk:vector(packetBytes)  ETV
attr interpolationmode  none
attr source  txPk
attr title  "packets transmitted, vector(packetBytes)"
vector 226  Topo.s1.etherMAC[4]  txPk:vector(packetBytes)  ETV
attr interpolationmode  none
attr source  txPk
attr title  "packets transmitted, vector(packetBytes)"
vector 237  Topo.s1.etherMAC[5]  txPk:vector(packetBytes)  ETV
attr interpolationmode  none
attr source  txPk
attr title  "packets transmitted, vector(packetBytes)"
vector 248  Topo.s1.etherMAC[6]  txPk:vector(packetBytes)  ETV
attr interpolationmode  none
attr source  txPk
attr title  "packets transmitted, vector(packetBytes)"
vector 41  Topo.client2.eth[0].mac  rxPkOk:vector(packetBytes)  ETV
attr interpolationmode  none
attr source  rxPkOk
attr title  "packets received OK, vector(packetBytes)"
vector 42  Topo.client2.eth[0].mac  passedUpPk:vector(packetBytes)  ETV
attr interpolationmode  none
attr source  packetSentToUpper
attr title  "packets passed to higher layer, vector(packetBytes)"
vector 67  Topo.client3.eth[0].mac  rxPkOk:vector(packetBytes)  ETV
attr interpolationmode  none
attr source  rxPkOk
attr title  "packets received OK, vector(packetBytes)"
vector 68  Topo.client3.eth[0].mac  passedUpPk:vector(packetBytes)  ETV
attr interpolationmode  none
attr source  packetSentToUpper
attr title  "packets passed to higher layer, vector(packetBytes)"
vector 93  Topo.client4.eth[0].mac  rxPkOk:vector(packetBytes)  ETV
attr interpolationmode  none
attr source  rxPkOk
attr title  "packets received OK, vector(packetBytes)"
vector 94  Topo.client4.eth[0].mac  passedUpPk:vector(packetBytes)  ETV
attr interpolationmode  none
attr source  packetSentToUpper
attr title  "packets passed to higher layer, vector(packetBytes)"
vector 119  Topo.server1.eth[0].mac  rxPkOk:vector(packetBytes)  ETV
attr interpolationmode  none
attr source  rxPkOk
attr title  "packets received OK, vector(packetBytes)"
vector 120  Topo.server1.eth[0].mac  passedUpPk:vector(packetBytes)  ETV
attr interpolationmode  none
attr source  packetSentToUpper
attr title  "packets passed to higher layer, vector(packetBytes)"
vector 145  Topo.server2.eth[0].mac  rxPkOk:vector(packetBytes)  ETV
attr interpolationmode  none
attr source  rxPkOk
attr title  "packets received OK, vector(packetBytes)"
vector 146  Topo.server2.eth[0].mac  passedUpPk:vector(packetBytes)  ETV
attr interpolationmode  none
attr source  packetSentToUpper
attr title  "packets passed to higher layer, vector(packetBytes)"
vector 171  Topo.server3.eth[0].mac  rxPkOk:vector(packetBytes)  ETV
attr interpolationmode  none
attr source  rxPkOk
attr title  "packets received OK, vector(packetBytes)"
vector 172  Topo.server3.eth[0].mac  passedUpPk:vector(packetBytes)  ETV
attr interpolationmode  none
attr source  packetSentToUpper
attr title  "packets passed to higher layer, vector(packetBytes)"
vector 50  Topo.client2.eth[0].encap  decapPk:vector(packetBytes)  ETV
attr interpolationmode  none
attr source  decapPk
attr title  "packets decapsulated, vector(packetBytes)"
vector 76  Topo.client3.eth[0].encap  decapPk:vector(packetBytes)  ETV
attr interpolationmode  none
attr source  decapPk
attr title  "packets decapsulated, vector(packetBytes)"
vector 102  Topo.client4.eth[0].encap  decapPk:vector(packetBytes)  ETV
attr interpolationmode  none
attr source  decapPk
attr title  "packets decapsulated, vector(packetBytes)"
vector 128  Topo.server1.eth[0].encap  decapPk:vector(packetBytes)  ETV
attr interpolationmode  none
attr source  decapPk
attr title  "packets decapsulated, vector(packetBytes)"
vector 154  Topo.server2.eth[0].encap  decapPk:vector(packetBytes)  ETV
attr interpolationmode  none
attr source  decapPk
attr title  "packets decapsulated, vector(packetBytes)"
vector 180  Topo.server3.eth[0].encap  decapPk:vector(packetBytes)  ETV
attr interpolationmode  none
attr source  decapPk
attr title  "packets decapsulated, vector(packetBytes)"
vector 114  Topo.server1.networkLayer.arp  sentReply:vector  ETV
attr title  "ARP replies sent, vector"
vector 127  Topo.server1.eth[0].encap  encapPk:vector(packetBytes)  ETV
attr interpolationmode  none
attr source  encapPk
attr title  "packets encapsulated, vector(packetBytes)"
vector 123  Topo.server1.eth[0].mac  rxPkFromHL:vector(packetBytes)  ETV
attr interpolationmode  none
attr source  rxPkFromHL
attr title  "packet bytes from higher layer, vector(packetBytes)"
vector 118  Topo.server1.eth[0].mac  txPk:vector(packetBytes)  ETV
attr interpolationmode  none
attr source  txPk
attr title  "packets transmitted, vector(packetBytes)"
vector 227  Topo.s1.etherMAC[4]  rxPkOk:vector(packetBytes)  ETV
attr interpolationmode  none
attr source  rxPkOk
attr title  "packets received OK, vector(packetBytes)"
vector 228  Topo.s1.etherMAC[4]  passedUpPk:vector(packetBytes)  ETV
attr interpolationmode  none
attr source  packetSentToUpper
attr title  "packets passed to higher layer, vector(packetBytes)"
vector 187  Topo.s1.etherMAC[0]  rxPkFromHL:vector(packetBytes)  ETV
attr interpolationmode  none
attr source  rxPkFromHL
attr title  "packet bytes from higher layer, vector(packetBytes)"
vector 182  Topo.s1.etherMAC[0]  txPk:vector(packetBytes)  ETV
attr interpolationmode  none
attr source  txPk
attr title  "packets transmitted, vector(packetBytes)"
vector 15  Topo.client1.eth[0].mac  rxPkOk:vector(packetBytes)  ETV
attr interpolationmode  none
attr source  rxPkOk
attr title  "packets received OK, vector(packetBytes)"
vector 16  Topo.client1.eth[0].mac  passedUpPk:vector(packetBytes)  ETV
attr interpolationmode  none
attr source  packetSentToUpper
attr title  "packets passed to higher layer, vector(packetBytes)"
vector 24  Topo.client1.eth[0].encap  decapPk:vector(packetBytes)  ETV
attr interpolationmode  none
attr source  decapPk
attr title  "packets decapsulated, vector(packetBytes)"
vector 109  Topo.server1.udp  rcvdPk:vector(packetBytes)  ETV
attr interpolationmode  none
attr source  rcvdPk
attr title  "packets received, vector(packetBytes)"
vector 110  Topo.server1.udp  passedUpPk:vector(count)  ETV
attr interpolationmode  none
attr title  "packets passed up, vector(count)"
vector 104  Topo.server1.udpApp[0]  rcvdPk:vector(packetBytes)  ETV
attr interpolationmode  none
attr source  rcvdPk
attr title  "packets received, vector(packetBytes)"
vector 105  Topo.server1.udpApp[0]  rcvdPk:vector(count)  ETV
attr interpolationmode  none
attr source  rcvdPk
attr title  "packets received, vector(count)"
vector 79  Topo.client4.udpApp[0]  sentPk:vector(packetBytes)  ETV
attr interpolationmode  none
attr source  sentPk
attr title  "packets sent, vector(packetBytes)"
vector 81  Topo.client4.udp  sentPk:vector(packetBytes)  ETV
attr interpolationmode  none
attr source  sentPk
attr title  "packets sent, vector(packetBytes)"
vector 82  Topo.client4.udp  sentPk:vector(count)  ETV
attr interpolationmode  none
attr source  sentPk
attr title  "packets sent, vector(count)"
vector 87  Topo.client4.networkLayer.arp  sentReq:vector  ETV
attr title  "ARP request sent, vector"
vector 101  Topo.client4.eth[0].encap  encapPk:vector(packetBytes)  ETV
attr interpolationmode  none
attr source  encapPk
attr title  "packets encapsulated, vector(packetBytes)"
vector 97  Topo.client4.eth[0].mac  rxPkFromHL:vector(packetBytes)  ETV
attr interpolationmode  none
attr source  rxPkFromHL
attr title  "packet bytes from higher layer, vector(packetBytes)"
vector 92  Topo.client4.eth[0].mac  txPk:vector(packetBytes)  ETV
attr interpolationmode  none
attr source  txPk
attr title  "packets transmitted, vector(packetBytes)"
vector 216  Topo.s1.etherMAC[3]  rxPkOk:vector(packetBytes)  ETV
attr interpolationmode  none
attr source  rxPkOk
attr title  "packets received OK, vector(packetBytes)"
vector 217  Topo.s1.etherMAC[3]  passedUpPk:vector(packetBytes)  ETV
attr interpolationmode  none
attr source  packetSentToUpper
attr title  "packets passed to higher layer, vector(packetBytes)"
vector 166  Topo.server3.networkLayer.arp  sentReply:vector  ETV
attr title  "ARP replies sent, vector"
vector 179  Topo.server3.eth[0].encap  encapPk:vector(packetBytes)  ETV
attr interpolationmode  none
attr source  encapPk
attr title  "packets encapsulated, vector(packetBytes)"
vector 175  Topo.server3.eth[0].mac  rxPkFromHL:vector(packetBytes)  ETV
attr interpolationmode  none
attr source  rxPkFromHL
attr title  "packet bytes from higher layer, vector(packetBytes)"
vector 170  Topo.server3.eth[0].mac  txPk:vector(packetBytes)  ETV
attr interpolationmode  none
attr source  txPk
attr title  "packets transmitted, vector(packetBytes)"
vector 249  Topo.s1.etherMAC[6]  rxPkOk:vector(packetBytes)  ETV
attr interpolationmode  none
attr source  rxPkOk
attr title  "packets received OK, vector(packetBytes)"
vector 250  Topo.s1.etherMAC[6]  passedUpPk:vector(packetBytes)  ETV
attr interpolationmode  none
attr source  packetSentToUpper
attr title  "packets passed to higher layer, vector(packetBytes)"
vector 161  Topo.server3.udp  rcvdPk:vector(packetBytes)  ETV
attr interpolationmode  none
attr source  rcvdPk
attr title  "packets received, vector(packetBytes)"
vector 162  Topo.server3.udp  passedUpPk:vector(count)  ETV
attr interpolationmode  none
attr title  "packets passed up, vector(count)"
vector 156  Topo.server3.udpApp[0]  rcvdPk:vector(packetBytes)  ETV
attr interpolationmode  none
attr source  rcvdPk
attr title  "packets received, vector(packetBytes)"
vector 157  Topo.server3.udpApp[0]  rcvdPk:vector(count)  ETV
attr interpolationmode  none
attr source  rcvdPk
attr title  "packets received, vector(count)"
vector 27  Topo.client2.udpApp[0]  sentPk:vector(packetBytes)  ETV
attr interpolationmode  none
attr source  sentPk
attr title  "packets sent, vector(packetBytes)"
vector 29  Topo.client2.udp  sentPk:vector(packetBytes)  ETV
attr interpolationmode  none
attr source  sentPk
attr title  "packets sent, vector(packetBytes)"
vector 30  Topo.client2.udp  sentPk:vector(count)  ETV
attr interpolationmode  none
attr source  sentPk
attr title  "packets sent, vector(count)"
vector 35  Topo.client2.networkLayer.arp  sentReq:vector  ETV
attr title  "ARP request sent, vector"
vector 49  Topo.client2.eth[0].encap  encapPk:vector(packetBytes)  ETV
attr interpolationmode  none
attr source  encapPk
attr title  "packets encapsulated, vector(packetBytes)"
vector 45  Topo.client2.eth[0].mac  rxPkFromHL:vector(packetBytes)  ETV
attr interpolationmode  none
attr source  rxPkFromHL
attr title  "packet bytes from higher layer, vector(packetBytes)"
vector 40  Topo.client2.eth[0].mac  txPk:vector(packetBytes)  ETV
attr interpolationmode  none
attr source  txPk
attr title  "packets transmitted, vector(packetBytes)"
vector 194  Topo.s1.etherMAC[1]  rxPkOk:vector(packetBytes)  ETV
attr interpolationmode  none
attr source  rxPkOk
attr title  "packets received OK, vector(packetBytes)"
vector 195  Topo.s1.etherMAC[1]  passedUpPk:vector(packetBytes)  ETV
attr interpolationmode  none
attr source  packetSentToUpper
attr title  "packets passed to higher layer, vector(packetBytes)"
vector 140  Topo.server2.networkLayer.arp  sentReply:vector  ETV
attr title  "ARP replies sent, vector"
vector 153  Topo.server2.eth[0].encap  encapPk:vector(packetBytes)  ETV
attr interpolationmode  none
attr source  encapPk
attr title  "packets encapsulated, vector(packetBytes)"
vector 149  Topo.server2.eth[0].mac  rxPkFromHL:vector(packetBytes)  ETV
attr interpolationmode  none
attr source  rxPkFromHL
attr title  "packet bytes from higher layer, vector(packetBytes)"
vector 144  Topo.server2.eth[0].mac  txPk:vector(packetBytes)  ETV
attr interpolationmode  none
attr source  txPk
attr title  "packets transmitted, vector(packetBytes)"
vector 238  Topo.s1.etherMAC[5]  rxPkOk:vector(packetBytes)  ETV
attr interpolationmode  none
attr source  rxPkOk
attr title  "packets received OK, vector(packetBytes)"
vector 239  Topo.s1.etherMAC[5]  passedUpPk:vector(packetBytes)  ETV
attr interpolationmode  none
attr source  packetSentToUpper
attr title  "packets passed to higher layer, vector(packetBytes)"
vector 135  Topo.server2.udp  rcvdPk:vector(packetBytes)  ETV
attr interpolationmode  none
attr source  rcvdPk
attr title  "packets received, vector(packetBytes)"
vector 136  Topo.server2.udp  passedUpPk:vector(count)  ETV
attr interpolationmode  none
attr title  "packets passed up, vector(count)"
vector 130  Topo.server2.udpApp[0]  rcvdPk:vector(packetBytes)  ETV
attr interpolationmode  none
attr source  rcvdPk
attr title  "packets received, vector(packetBytes)"
vector 131  Topo.server2.udpApp[0]  rcvdPk:vector(count)  ETV
attr interpolationmode  none
attr source  rcvdPk
attr title  "packets received, vector(count)"
vector 158  Topo.server3.udpApp[0]  rcvdAppPkt:vector  ETV
attr interpolationmode  none
attr source  rcvdAppPkt
attr title  "packets received during sec, vector"
vector 106  Topo.server1.udpApp[0]  rcvdAppPkt:vector  ETV
attr interpolationmode  none
attr source  rcvdAppPkt
attr title  "packets received during sec, vector"
vector 132  Topo.server2.udpApp[0]  rcvdAppPkt:vector  ETV
attr interpolationmode  none
attr source  rcvdAppPkt
attr title  "packets received during sec, vector"
vector 53  Topo.client3.udpApp[0]  sentPk:vector(packetBytes)  ETV
attr interpolationmode  none
attr source  sentPk
attr title  "packets sent, vector(packetBytes)"
vector 55  Topo.client3.udp  sentPk:vector(packetBytes)  ETV
attr interpolationmode  none
attr source  sentPk
attr title  "packets sent, vector(packetBytes)"
vector 56  Topo.client3.udp  sentPk:vector(count)  ETV
attr interpolationmode  none
attr source  sentPk
attr title  "packets sent, vector(count)"
vector 61  Topo.client3.networkLayer.arp  sentReq:vector  ETV
attr title  "ARP request sent, vector"
vector 75  Topo.client3.eth[0].encap  encapPk:vector(packetBytes)  ETV
attr interpolationmode  none
attr source  encapPk
attr title  "packets encapsulated, vector(packetBytes)"
vector 71  Topo.client3.eth[0].mac  rxPkFromHL:vector(packetBytes)  ETV
attr interpolationmode  none
attr source  rxPkFromHL
attr title  "packet bytes from higher layer, vector(packetBytes)"
vector 66  Topo.client3.eth[0].mac  txPk:vector(packetBytes)  ETV
attr interpolationmode  none
attr source  txPk
attr title  "packets transmitted, vector(packetBytes)"
vector 205  Topo.s1.etherMAC[2]  rxPkOk:vector(packetBytes)  ETV
attr interpolationmode  none
attr source  rxPkOk
attr title  "packets received OK, vector(packetBytes)"
vector 206  Topo.s1.etherMAC[2]  passedUpPk:vector(packetBytes)  ETV
attr interpolationmode  none
attr source  packetSentToUpper
attr title  "packets passed to higher layer, vector(packetBytes)"
1	21728 17450 181 408120 0.1 94.9 949 1250 1250 1186250 1482812500
3	39178 17450 185 408122 0.1 94.9 949 1258 1258 1193842 1501853236
4	56628 16393 185 408122 0.1 94.9 949 1 949 450775 285340575
9	73021 12 187 187 0.1 0.1 1 1 1 1 1
14	73033 25255 193 408129 0.10000576 94.90010432 950 64 1296 1229968 1593959680
15	98288 102 416 7621 0.100099919998 2.000043199999 4 64 64 256 16384
16	98390 102 416 7621 0.100099919998 2.000043199999 4 64 64 256 16384
19	98492 18424 191 408127 0.1 94.9 950 64 1296 1229968 1593959680
23	116916 18424 190 408126 0.1 94.9 950 28 1278 1212850 1549987300
24	135340 102 418 7628 0.100099919998 2.000043199999 4 28 28 112 3136
27	135442 3034 2172 407264 0.6 94.8 158 1250 1250 197500 246875000
29	138476 3034 2180 407270 0.6 94.8 158 1258 1258 198764 250045112
30	141510 2768 2180 407270 0.6 94.8 158 1 158 12561 1327279
35	144278 14 2186 2186 0.6 0.6 1 1 1 1 1
40	144292 4228 2202 407434 0.60000576 94.80010432 159 64 1296 204832 265383424
41	148520 102 279 7622 0.100043199999 2.000043199999 4 64 64 256 16384
42	148622 102 279 7622 0.100043199999 2.000043199999 4 64 64 256 16384
45	148724 3060 2198 407285 0.6 94.8 159 64 1296 204832 265383424
49	151784 3060 2195 407282 0.6 94.8 159 28 1278 201952 258059656
50	154844 102 286 7629 0.100043199999 2.000043199999 4 28 28 112 3136
53	154946 828 7505 403548 2 94 47 1250 1250 58750 73437500
55	155774 6040 7513 407258 2 94.799999999954 235 8 1258 60630 74392540
56	161814 6261 7513 407258 2 94.799999999954 235 1 235 27730 4353610
61	168075 12 7519 7519 2 2 1 1 1 1 1
66	168087 6844 7535 407292 2.00000576 94.800005759954 236 64 1296 73008 79716096
67	174931 102 280 7758 0.100043199999 2.000099919998 4 64 64 256 16384
68	175033 102 280 7758 0.100043199999 2.000099919998 4 64 64 256 16384
71	175135 6254 7531 407263 2 94.799999999954 236 64 1296 73008 79716096
75	181389 6254 7528 407262 2 94.799999999954 236 28 1278 65358 76912524
76	187643 102 287 7760 0.100043199999 2.000099919998 4 28 28 112 3136
79	187745 9115 645 408375 0.2 95 475 1250 1250 593750 742187500
81	196860 9097 651 407271 0.2 94.8 474 1258 1258 596292 750135336
82	205957 8515 651 407271 0.2 94.8 474 1 474 112575 35611225
87	214472 13 655 655 0.2 0.2 1 1 1 1 1
92	214485 12628 666 407435 0.20000576 94.80010432 475 64 1296 614368 796142080
93	227113 102 281 7623 0.100043199999 2.000043199999 4 64 64 256 16384
94	227215 102 281 7623 0.100043199999 2.000043199999 4 64 64 256 16384
97	227317 9122 663 407286 0.2 94.8 475 64 1296 614368 796142080
101	236439 9597 661 407283 0.2 94.8 475 28 1278 605800 774177400
102	246036 106 288 7630 0.100043199999 2.000043199999 4 28 28 112 3136
104	246142 29978 644 408374 0.100569039992 94.900469119994 949 1250 1250 1186250 1482812500
105	276120 28921 644 408374 0.100569039992 94.900469119994 949 1 949 450775 285340575
106	305041 2783 4315 404302 1.000611839988 94.000611839988 94 10 10 940 9400
109	307824 29978 642 408372 0.100569039992 94.900469119994 949 1258 1258 1193842 1501853236
110	337802 28921 642 408372 0.100569039992 94.900469119994 949 1 949 450775 285340575
114	366723 25 310 310 0.100043199999 0.100043199999 1 1 1 1 1
118	366748 26 320 320 0.100048959999 0.100048959999 1 64 64 64 4096
119	366774 30084 282 408367 0.100043199999 94.900469119994 953 64 1296 1230160 1593971968
120	396858 30084 282 408367 0.100043199999 94.900469119994 953 64 1296 1230160 1593971968
123	426942 26 318 318 0.100043199999 0.100043199999 1 64 64 64 4096
127	426968 26 317 317 0.100043199999 0.100043199999 1 28 28 28 784
128	426994 30084 289 408368 0.100043199999 94.900469119994 953 28 1278 1212934 1549989652
130	457078 11902 3029 407800 0.600754559982 94.800469119994 393 0 1250 256250 320312500
131	468980 11965 3029 407800 0.600754559982 94.800469119994 393 1 393 77421 20310109
132	480945 2686 4921 403717 1.200469119994 94.000063439952 94 1 6 388 1798
135	483631 11902 3027 407798 0.600754559982 94.800469119994 393 8 1258 259394 324437652
136	495533 11965 3027 407798 0.600754559982 94.800469119994 393 1 393 77421 20310109
140	507498 52 2320 7653 0.600043199999 2.000043199999 2 1 1 2 2
144	507550 54 2329 7662 0.600048959999 2.000048959999 2 64 64 128 8192
145	507604 12196 283 407793 0.100043199999 94.800469119994 397 64 1296 277968 345107712
146	519800 12196 283 407793 0.100043199999 94.800469119994 397 64 1296 277968 345107712
149	531996 54 2327 7660 0.600043199999 2.000043199999 2 64 64 128 8192
153	532050 54 2326 7659 0.600043199999 2.000043199999 2 28 28 56 1568
154	532104 12196 290 407794 0.100043199999 94.800469119994 397 28 1278 267366 334973748
156	544300 14974 1305 408018 0.200611839988 94.800611839988 474 1250 1250 592500 740625000
157	559274 14392 1305 408018 0.200611839988 94.800611839988 474 1 474 112575 35611225
158	573666 2689 4259 404084 1.000469119994 94.000469119994 94 5 5 470 2350
161	576355 14974 1303 408016 0.200611839988 94.800611839988 474 1258 1258 596292 750135336
162	591329 14392 1303 408016 0.200611839988 94.800611839988 474 1 474 112575 35611225
166	605721 25 785 785 0.200043199999 0.200043199999 1 1 1 1 1
170	605746 26 793 793 0.200048959999 0.200048959999 1 64 64 64 4096
171	605772 15080 284 408011 0.100043199999 94.800611839988 478 64 1296 614560 796154368
172	620852 15080 284 408011 0.100043199999 94.800611839988 478 64 1296 614560 796154368
175	635932 26 791 791 0.200043199999 0.200043199999 1 64 64 64 4096
179	635958 26 790 790 0.200043199999 0.200043199999 1 28 28 28 784
180	635984 15080 291 408012 0.100043199999 94.800611839988 478 28 1278 605884 774179752
182	651064 106 412 7607 0.100098919998 2.000042199999 4 64 64 256 16384
183	651170 26205 195 408131 0.10000676 94.90010532 950 64 1296 1229968 1593959680
184	677375 26205 195 408131 0.10000676 94.90010532 950 64 1296 1229968 1593959680
187	703580 106 409 7599 0.100093159998 2.000036439999 4 64 64 256 16384
193	703686 106 265 7608 0.100042199999 2.000042199999 4 64 64 256 16384
194	703792 4387 2204 407440 0.60000676 94.80010532 159 64 1296 204832 265383424
195	708179 4387 2204 407440 0.60000676 94.80010532 159 64 1296 204832 265383424
198	712566 106 257 7600 0.100036439999 2.000036439999 4 64 64 256 16384
204	712672 106 266 7754 0.100042199999 2.000098919998 4 64 64 256 16384
205	712778 7080 7537 407294 2.00000676 94.800006759954 236 64 1296 73008 79716096
206	719858 7080 7537 407294 2.00000676 94.800006759954 236 64 1296 73008 79716096
209	726938 106 258 7751 0.100036439999 2.000093159998 4 64 64 256 16384
215	727044 106 267 7609 0.100042199999 2.000042199999 4 64 64 256 16384
216	727150 13103 668 407441 0.20000676 94.80010532 475 64 1296 614368 796142080
217	740253 13103 668 407441 0.20000676 94.80010532 475 64 1296 614368 796142080
220	753356 106 259 7601 0.100036439999 2.000036439999 4 64 64 256 16384
226	753462 30084 268 408365 0.100042199999 94.900468119994 953 64 1296 1230160 1593971968
227	783546 26 322 322 0.100049959999 0.100049959999 1 64 64 64 4096
228	783572 26 322 322 0.100049959999 0.100049959999 1 64 64 64 4096
231	783598 30084 260 408346 0.100036439999 94.900363799994 953 64 1296 1230160 1593971968
237	813682 12196 269 407791 0.100042199999 94.800468119994 397 64 1296 277968 345107712
238	825878 54 2331 7664 0.600049959999 2.000049959999 2 64 64 128 8192
239	825932 54 2331 7664 0.600049959999 2.000049959999 2 64 64 128 8192
242	825986 12196 261 407715 0.100036439999 94.800363799994 397 64 1296 277968 345107712
248	838182 15080 270 408009 0.100042199999 94.800610839988 478 64 1296 614560 796154368
249	853262 26 795 795 0.200049959999 0.200049959999 1 64 64 64 4096
250	853288 26 795 795 0.200049959999 0.200049959999 1 64 64 64 4096
253	853314 15080 262 407911 0.100036439999 94.800506519988 478 64 1296 614560 796154368
259	868394 11 55 55 0 0 1 1 1 1 1
261	868405 372158 60 408350 0.00000576 94.900369559994 12539 64 594 2896272 1312736256
262	1240563 372189 73 408352 0.00001352 94.900370519993 12538 64 594 2896890 1313117894
263	1612752 372189 73 408352 0.00001352 94.900370519993 12538 64 594 2896890 1313117894
266	1984941 357089 59 408348 0 94.900363799994 12539 64 594 2896272 1312736256
270	2342030 357089 58 408347 0 94.900363799994 12539 28 576 2627042 1208783730