version 2
run simple_attack_host-0-20170413-09:57:54-7666
attr configname simple_attack_host
attr datetime 20170413-09:57:54
attr experiment simple_attack_host
attr inifile omnetpp.ini
attr iterationvars ""
attr iterationvars2 $repetition=0
attr measurement ""
attr network Topo
attr processid 7666
attr repetition 0
attr replication #0
attr resultdir results
attr runnumber 0
attr seedset 0

vector 354  Topo.s1.tcp  tcpRcvQueueBytes  ETV
vector 341  Topo.s1.tcp  "advertised window"  ETV
vector 340  Topo.s1.tcp  "receive window"  ETV
vector 343  Topo.s1.tcp  "sent ack"  ETV
vector 283  Topo.s1.networkLayer.arp  sentReq:vector  ETV
attr title  "ARP request sent, vector"
vector 294  Topo.s1.eth[0].encap  encapPk:vector(packetBytes)  ETV
attr interpolationmode  none
attr source  encapPk
attr title  "packets encapsulated, vector(packetBytes)"
vector 290  Topo.s1.eth[0].mac  rxPkFromHL:vector(packetBytes)  ETV
attr interpolationmode  none
attr source  rxPkFromHL
attr title  "packet bytes from higher layer, vector(packetBytes)"
vector 285  Topo.s1.eth[0].mac  txPk:vector(packetBytes)  ETV
attr interpolationmode  none
attr source  txPk
attr title  "packets transmitted, vector(packetBytes)"
vector 304  Topo.controller.eth[0].mac  rxPkOk:vector(packetBytes)  ETV
attr interpolationmode  none
attr source  rxPkOk
attr title  "packets received OK, vector(packetBytes)"
vector 305  Topo.controller.eth[0].mac  passedUpPk:vector(packetBytes)  ETV
attr interpolationmode  none
attr source  packetSentToUpper
attr title  "packets passed to higher layer, vector(packetBytes)"
vector 313  Topo.controller.eth[0].encap  decapPk:vector(packetBytes)  ETV
attr interpolationmode  none
attr source  decapPk
attr title  "packets decapsulated, vector(packetBytes)"
vector 299  Topo.controller.networkLayer.arp  sentReply:vector  ETV
attr title  "ARP replies sent, vector"
vector 312  Topo.controller.eth[0].encap  encapPk:vector(packetBytes)  ETV
attr interpolationmode  none
attr source  encapPk
attr title  "packets encapsulated, vector(packetBytes)"
vector 308  Topo.controller.eth[0].mac  rxPkFromHL:vector(packetBytes)  ETV
attr interpolationmode  none
attr source  rxPkFromHL
attr title  "packet bytes from higher layer, vector(packetBytes)"
vector 303  Topo.controller.eth[0].mac  txPk:vector(packetBytes)  ETV
attr interpolationmode  none
attr source  txPk
attr title  "packets transmitted, vector(packetBytes)"
vector 286  Topo.s1.eth[0].mac  rxPkOk:vector(packetBytes)  ETV
attr interpolationmode  none
attr source  rxPkOk
attr title  "packets received OK, vector(packetBytes)"
vector 287  Topo.s1.eth[0].mac  passedUpPk:vector(packetBytes)  ETV
attr interpolationmode  none
attr source  packetSentToUpper
attr title  "packets passed to higher layer, vector(packetBytes)"
vector 295  Topo.s1.eth[0].encap  decapPk:vector(packetBytes)  ETV
attr interpolationmode  none
attr source  decapPk
attr title  "packets decapsulated, vector(packetBytes)"
vector 320  Topo.controller.tcp  "rcvd seq"  ETV
vector 321  Topo.controller.tcp  "rcvd ack"  ETV
vector 317  Topo.controller.tcp  "advertised window"  ETV
vector 315  Topo.controller.tcp  "send window"  ETV
vector 330  Topo.controller.tcp  tcpRcvQueueBytes  ETV
vector 316  Topo.controller.tcp  "receive window"  ETV
vector 319  Topo.controller.tcp  "sent ack"  ETV
vector 344  Topo.s1.tcp  "rcvd seq"  ETV
vector 345  Topo.s1.tcp  "rcvd ack"  ETV
vector 339  Topo.s1.tcp  "send window"  ETV
vector 322  Topo.controller.tcp  "unacked bytes"  ETV
vector 318  Topo.controller.tcp  "sent seq"  ETV
vector 347  Topo.s1.tcp  "rcvd dupAcks"  ETV
vector 342  Topo.s1.tcp  "sent seq"  ETV
vector 346  Topo.s1.tcp  "unacked bytes"  ETV
vector 334  Topo.controller.tcp  "measured RTT"  ETV
vector 335  Topo.controller.tcp  "smoothed RTT"  ETV
vector 336  Topo.controller.tcp  RTTVAR  ETV
vector 337  Topo.controller.tcp  RTO  ETV
vector 332  Topo.controller.tcp  cwnd  ETV
vector 323  Topo.controller.tcp  "rcvd dupAcks"  ETV
vector 358  Topo.s1.tcp  "measured RTT"  ETV
vector 359  Topo.s1.tcp  "smoothed RTT"  ETV
vector 360  Topo.s1.tcp  RTTVAR  ETV
vector 361  Topo.s1.tcp  RTO  ETV
vector 356  Topo.s1.tcp  cwnd  ETV
vector 1  Topo.client1.udpApp[0]  sentPk:vector(packetBytes)  ETV
attr interpolationmode  none
attr source  sentPk
attr title  "packets sent, vector(packetBytes)"
vector 3  Topo.client1.udp  sentPk:vector(packetBytes)  ETV
attr interpolationmode  none
attr source  sentPk
attr title  "packets sent, vector(packetBytes)"
vector 4  Topo.client1.udp  sentPk:vector(count)  ETV
attr interpolationmode  none
attr source  sentPk
attr title  "packets sent, vector(count)"
vector 12  Topo.client1.networkLayer.arp  sentReq:vector  ETV
attr title  "ARP request sent, vector"
vector 26  Topo.client1.eth[0].encap  encapPk:vector(packetBytes)  ETV
attr interpolationmode  none
attr source  encapPk
attr title  "packets encapsulated, vector(packetBytes)"
vector 22  Topo.client1.eth[0].mac  rxPkFromHL:vector(packetBytes)  ETV
attr interpolationmode  none
attr source  rxPkFromHL
attr title  "packet bytes from higher layer, vector(packetBytes)"
vector 17  Topo.client1.eth[0].mac  txPk:vector(packetBytes)  ETV
attr interpolationmode  none
attr source  txPk
attr title  "packets transmitted, vector(packetBytes)"
vector 204  Topo.s1.etherMAC[0]  rxPkOk:vector(packetBytes)  ETV
attr interpolationmode  none
attr source  rxPkOk
attr title  "packets received OK, vector(packetBytes)"
vector 205  Topo.s1.etherMAC[0]  passedUpPk:vector(packetBytes)  ETV
attr interpolationmode  none
attr source  packetSentToUpper
attr title  "packets passed to higher layer, vector(packetBytes)"
vector 281  Topo.s1.ofa_switch  myRtt:vector  ETV
attr interpolation  none
attr source  myRtt
attr title  "RTT for packet out direction, vector"
vector 219  Topo.s1.etherMAC[1]  rxPkFromHL:vector(packetBytes)  ETV
attr interpolationmode  none
attr source  rxPkFromHL
attr title  "packet bytes from higher layer, vector(packetBytes)"
vector 230  Topo.s1.etherMAC[2]  rxPkFromHL:vector(packetBytes)  ETV
attr interpolationmode  none
attr source  rxPkFromHL
attr title  "packet bytes from higher layer, vector(packetBytes)"
vector 241  Topo.s1.etherMAC[3]  rxPkFromHL:vector(packetBytes)  ETV
attr interpolationmode  none
attr source  rxPkFromHL
attr title  "packet bytes from higher layer, vector(packetBytes)"
vector 252  Topo.s1.etherMAC[4]  rxPkFromHL:vector(packetBytes)  ETV
attr interpolationmode  none
attr source  rxPkFromHL
attr title  "packet bytes from higher layer, vector(packetBytes)"
vector 263  Topo.s1.etherMAC[5]  rxPkFromHL:vector(packetBytes)  ETV
attr interpolationmode  none
attr source  rxPkFromHL
attr title  "packet bytes from higher layer, vector(packetBytes)"
vector 274  Topo.s1.etherMAC[6]  rxPkFromHL:vector(packetBytes)  ETV
attr interpolationmode  none
attr source  rxPkFromHL
attr title  "packet bytes from higher layer, vector(packetBytes)"
vector 214  Topo.s1.etherMAC[1]  txPk:vector(packetBytes)  ETV
attr interpolationmode  none
attr source  txPk
attr title  "packets transmitted, vector(packetBytes)"
vector 225  Topo.s1.etherMAC[2]  txPk:vector(packetBytes)  ETV
attr interpolationmode  none
attr source  txPk
attr title  "packets transmitted, vector(packetBytes)"
vector 236  Topo.s1.etherMAC[3]  txPk:vector(packetBytes)  ETV
attr interpolationmode  none
attr source  txPk
attr title  "packets transmitted, vector(packetBytes)"
vector 247  Topo.s1.etherMAC[4]  txPk:vector(packetBytes)  ETV
attr interpolationmode  none
attr source  txPk
attr title  "packets transmitted, vector(packetBytes)"
vector 258  Topo.s1.etherMAC[5]  txPk:vector(packetBytes)  ETV
attr interpolationmode  none
attr source  txPk
attr title  "packets transmitted, vector(packetBytes)"
vector 269  Topo.s1.etherMAC[6]  txPk:vector(packetBytes)  ETV
attr interpolationmode  none
attr source  txPk
attr title  "packets transmitted, vector(packetBytes)"
vector 47  Topo.client2.eth[0].mac  rxPkOk:vector(packetBytes)  ETV
attr interpolationmode  none
attr source  rxPkOk
attr title  "packets received OK, vector(packetBytes)"
vector 48  Topo.client2.eth[0].mac  passedUpPk:vector(packetBytes)  ETV
attr interpolationmode  none
attr source  packetSentToUpper
attr title  "packets passed to higher layer, vector(packetBytes)"
vector 76  Topo.client3.eth[0].mac  rxPkOk:vector(packetBytes)  ETV
attr interpolationmode  none
attr source  rxPkOk
attr title  "packets received OK, vector(packetBytes)"
vector 77  Topo.client3.eth[0].mac  passedUpPk:vector(packetBytes)  ETV
attr interpolationmode  none
attr source  packetSentToUpper
attr title  "packets passed to higher layer, vector(packetBytes)"
vector 105  Topo.client4.eth[0].mac  rxPkOk:vector(packetBytes)  ETV
attr interpolationmode  none
attr source  rxPkOk
attr title  "packets received OK, vector(packetBytes)"
vector 106  Topo.client4.eth[0].mac  passedUpPk:vector(packetBytes)  ETV
attr interpolationmode  none
attr source  packetSentToUpper
attr title  "packets passed to higher layer, vector(packetBytes)"
vector 134  Topo.server1.eth[0].mac  rxPkOk:vector(packetBytes)  ETV
attr interpolationmode  none
attr source  rxPkOk
attr title  "packets received OK, vector(packetBytes)"
vector 135  Topo.server1.eth[0].mac  passedUpPk:vector(packetBytes)  ETV
attr interpolationmode  none
attr source  packetSentToUpper
attr title  "packets passed to higher layer, vector(packetBytes)"
vector 163  Topo.server2.eth[0].mac  rxPkOk:vector(packetBytes)  ETV
attr interpolationmode  none
attr source  rxPkOk
attr title  "packets received OK, vector(packetBytes)"
vector 164  Topo.server2.eth[0].mac  passedUpPk:vector(packetBytes)  ETV
attr interpolationmode  none
attr source  packetSentToUpper
attr title  "packets passed to higher layer, vector(packetBytes)"
vector 192  Topo.server3.eth[0].mac  rxPkOk:vector(packetBytes)  ETV
attr interpolationmode  none
attr source  rxPkOk
attr title  "packets received OK, vector(packetBytes)"
vector 193  Topo.server3.eth[0].mac  passedUpPk:vector(packetBytes)  ETV
attr interpolationmode  none
attr source  packetSentToUpper
attr title  "packets passed to higher layer, vector(packetBytes)"
vector 56  Topo.client2.eth[0].encap  decapPk:vector(packetBytes)  ETV
attr interpolationmode  none
attr source  decapPk
attr title  "packets decapsulated, vector(packetBytes)"
vector 85  Topo.client3.eth[0].encap  decapPk:vector(packetBytes)  ETV
attr interpolationmode  none
attr source  decapPk
attr title  "packets decapsulated, vector(packetBytes)"
vector 114  Topo.client4.eth[0].encap  decapPk:vector(packetBytes)  ETV
attr interpolationmode  none
attr source  decapPk
attr title  "packets decapsulated, vector(packetBytes)"
vector 143  Topo.server1.eth[0].encap  decapPk:vector(packetBytes)  ETV
attr interpolationmode  none
attr source  decapPk
attr title  "packets decapsulated, vector(packetBytes)"
vector 172  Topo.server2.eth[0].encap  decapPk:vector(packetBytes)  ETV
attr interpolationmode  none
attr source  decapPk
attr title  "packets decapsulated, vector(packetBytes)"
vector 201  Topo.server3.eth[0].encap  decapPk:vector(packetBytes)  ETV
attr interpolationmode  none
attr source  decapPk
attr title  "packets decapsulated, vector(packetBytes)"
vector 129  Topo.server1.networkLayer.arp  sentReply:vector  ETV
attr title  "ARP replies sent, vector"
vector 142  Topo.server1.eth[0].encap  encapPk:vector(packetBytes)  ETV
attr interpolationmode  none
attr source  encapPk
attr title  "packets encapsulated, vector(packetBytes)"
vector 138  Topo.server1.eth[0].mac  rxPkFromHL:vector(packetBytes)  ETV
attr interpolationmode  none
attr source  rxPkFromHL
attr title  "packet bytes from higher layer, vector(packetBytes)"
vector 133  Topo.server1.eth[0].mac  txPk:vector(packetBytes)  ETV
attr interpolationmode  none
attr source  txPk
attr title  "packets transmitted, vector(packetBytes)"
vector 248  Topo.s1.etherMAC[4]  rxPkOk:vector(packetBytes)  ETV
attr interpolationmode  none
attr source  rxPkOk
attr title  "packets received OK, vector(packetBytes)"
vector 249  Topo.s1.etherMAC[4]  passedUpPk:vector(packetBytes)  ETV
attr interpolationmode  none
attr source  packetSentToUpper
attr title  "packets passed to higher layer, vector(packetBytes)"
vector 208  Topo.s1.etherMAC[0]  rxPkFromHL:vector(packetBytes)  ETV
attr interpolationmode  none
attr source  rxPkFromHL
attr title  "packet bytes from higher layer, vector(packetBytes)"
vector 203  Topo.s1.etherMAC[0]  txPk:vector(packetBytes)  ETV
attr interpolationmode  none
attr source  txPk
attr title  "packets transmitted, vector(packetBytes)"
vector 18  Topo.client1.eth[0].mac  rxPkOk:vector(packetBytes)  ETV
attr interpolationmode  none
attr source  rxPkOk
attr title  "packets received OK, vector(packetBytes)"
vector 19  Topo.client1.eth[0].mac  passedUpPk:vector(packetBytes)  ETV
attr interpolationmode  none
attr source  packetSentToUpper
attr title  "packets passed to higher layer, vector(packetBytes)"
vector 27  Topo.client1.eth[0].encap  decapPk:vector(packetBytes)  ETV
attr interpolationmode  none
attr source  decapPk
attr title  "packets decapsulated, vector(packetBytes)"
vector 121  Topo.server1.udp  rcvdPk:vector(packetBytes)  ETV
attr interpolationmode  none
attr source  rcvdPk
attr title  "packets received, vector(packetBytes)"
vector 126  Topo.server1.udp  rcvdPkLifetime:vector  ETV
attr interpolationmode  none
attr source  messageAge(rcvdPk)
attr title  "received packet lifetime, vector"
attr unit  s
vector 125  Topo.server1.udp  delay:vector  ETV
attr interpolationmode  none
attr source  delay
attr title  "delay, vector"
vector 122  Topo.server1.udp  passedUpPk:vector(count)  ETV
attr interpolationmode  none
attr title  "packets passed up, vector(count)"
vector 116  Topo.server1.udpApp[0]  rcvdPk:vector(packetBytes)  ETV
attr interpolationmode  none
attr source  rcvdPk
attr title  "packets received, vector(packetBytes)"
vector 117  Topo.server1.udpApp[0]  rcvdPk:vector(count)  ETV
attr interpolationmode  none
attr source  rcvdPk
attr title  "packets received, vector(count)"
vector 88  Topo.client4.udpApp[0]  sentPk:vector(packetBytes)  ETV
attr interpolationmode  none
attr source  sentPk
attr title  "packets sent, vector(packetBytes)"
vector 90  Topo.client4.udp  sentPk:vector(packetBytes)  ETV
attr interpolationmode  none
attr source  sentPk
attr title  "packets sent, vector(packetBytes)"
vector 91  Topo.client4.udp  sentPk:vector(count)  ETV
attr interpolationmode  none
attr source  sentPk
attr title  "packets sent, vector(count)"
vector 99  Topo.client4.networkLayer.arp  sentReq:vector  ETV
attr title  "ARP request sent, vector"
vector 113  Topo.client4.eth[0].encap  encapPk:vector(packetBytes)  ETV
attr interpolationmode  none
attr source  encapPk
attr title  "packets encapsulated, vector(packetBytes)"
vector 109  Topo.client4.eth[0].mac  rxPkFromHL:vector(packetBytes)  ETV
attr interpolationmode  none
attr source  rxPkFromHL
attr title  "packet bytes from higher layer, vector(packetBytes)"
vector 104  Topo.client4.eth[0].mac  txPk:vector(packetBytes)  ETV
attr interpolationmode  none
attr source  txPk
attr title  "packets transmitted, vector(packetBytes)"
vector 237  Topo.s1.etherMAC[3]  rxPkOk:vector(packetBytes)  ETV
attr interpolationmode  none
attr source  rxPkOk
attr title  "packets received OK, vector(packetBytes)"
vector 238  Topo.s1.etherMAC[3]  passedUpPk:vector(packetBytes)  ETV
attr interpolationmode  none
attr source  packetSentToUpper
attr title  "packets passed to higher layer, vector(packetBytes)"
vector 187  Topo.server3.networkLayer.arp  sentReply:vector  ETV
attr title  "ARP replies sent, vector"
vector 200  Topo.server3.eth[0].encap  encapPk:vector(packetBytes)  ETV
attr interpolationmode  none
attr source  encapPk
attr title  "packets encapsulated, vector(packetBytes)"
vector 196  Topo.server3.eth[0].mac  rxPkFromHL:vector(packetBytes)  ETV
attr interpolationmode  none
attr source  rxPkFromHL
attr title  "packet bytes from higher layer, vector(packetBytes)"
vector 191  Topo.server3.eth[0].mac  txPk:vector(packetBytes)  ETV
attr interpolationmode  none
attr source  txPk
attr title  "packets transmitted, vector(packetBytes)"
vector 270  Topo.s1.etherMAC[6]  rxPkOk:vector(packetBytes)  ETV
attr interpolationmode  none
attr source  rxPkOk
attr title  "packets received OK, vector(packetBytes)"
vector 271  Topo.s1.etherMAC[6]  passedUpPk:vector(packetBytes)  ETV
attr interpolationmode  none
attr source  packetSentToUpper
attr title  "packets passed to higher layer, vector(packetBytes)"
vector 179  Topo.server3.udp  rcvdPk:vector(packetBytes)  ETV
attr interpolationmode  none
attr source  rcvdPk
attr title  "packets received, vector(packetBytes)"
vector 184  Topo.server3.udp  rcvdPkLifetime:vector  ETV
attr interpolationmode  none
attr source  messageAge(rcvdPk)
attr title  "received packet lifetime, vector"
attr unit  s
vector 183  Topo.server3.udp  delay:vector  ETV
attr interpolationmode  none
attr source  delay
attr title  "delay, vector"
vector 180  Topo.server3.udp  passedUpPk:vector(count)  ETV
attr interpolationmode  none
attr title  "packets passed up, vector(count)"
vector 174  Topo.server3.udpApp[0]  rcvdPk:vector(packetBytes)  ETV
attr interpolationmode  none
attr source  rcvdPk
attr title  "packets received, vector(packetBytes)"
vector 175  Topo.server3.udpApp[0]  rcvdPk:vector(count)  ETV
attr interpolationmode  none
attr source  rcvdPk
attr title  "packets received, vector(count)"
vector 30  Topo.client2.udpApp[0]  sentPk:vector(packetBytes)  ETV
attr interpolationmode  none
attr source  sentPk
attr title  "packets sent, vector(packetBytes)"
vector 32  Topo.client2.udp  sentPk:vector(packetBytes)  ETV
attr interpolationmode  none
attr source  sentPk
attr title  "packets sent, vector(packetBytes)"
vector 33  Topo.client2.udp  sentPk:vector(count)  ETV
attr interpolationmode  none
attr source  sentPk
attr title  "packets sent, vector(count)"
vector 41  Topo.client2.networkLayer.arp  sentReq:vector  ETV
attr title  "ARP request sent, vector"
vector 55  Topo.client2.eth[0].encap  encapPk:vector(packetBytes)  ETV
attr interpolationmode  none
attr source  encapPk
attr title  "packets encapsulated, vector(packetBytes)"
vector 51  Topo.client2.eth[0].mac  rxPkFromHL:vector(packetBytes)  ETV
attr interpolationmode  none
attr source  rxPkFromHL
attr title  "packet bytes from higher layer, vector(packetBytes)"
vector 46  Topo.client2.eth[0].mac  txPk:vector(packetBytes)  ETV
attr interpolationmode  none
attr source  txPk
attr title  "packets transmitted, vector(packetBytes)"
vector 215  Topo.s1.etherMAC[1]  rxPkOk:vector(packetBytes)  ETV
attr interpolationmode  none
attr source  rxPkOk
attr title  "packets received OK, vector(packetBytes)"
vector 216  Topo.s1.etherMAC[1]  passedUpPk:vector(packetBytes)  ETV
attr interpolationmode  none
attr source  packetSentToUpper
attr title  "packets passed to higher layer, vector(packetBytes)"
vector 158  Topo.server2.networkLayer.arp  sentReply:vector  ETV
attr title  "ARP replies sent, vector"
vector 171  Topo.server2.eth[0].encap  encapPk:vector(packetBytes)  ETV
attr interpolationmode  none
attr source  encapPk
attr title  "packets encapsulated, vector(packetBytes)"
vector 167  Topo.server2.eth[0].mac  rxPkFromHL:vector(packetBytes)  ETV
attr interpolationmode  none
attr source  rxPkFromHL
attr title  "packet bytes from higher layer, vector(packetBytes)"
vector 162  Topo.server2.eth[0].mac  txPk:vector(packetBytes)  ETV
attr interpolationmode  none
attr source  txPk
attr title  "packets transmitted, vector(packetBytes)"
vector 259  Topo.s1.etherMAC[5]  rxPkOk:vector(packetBytes)  ETV
attr interpolationmode  none
attr source  rxPkOk
attr title  "packets received OK, vector(packetBytes)"
vector 260  Topo.s1.etherMAC[5]  passedUpPk:vector(packetBytes)  ETV
attr interpolationmode  none
attr source  packetSentToUpper
attr title  "packets passed to higher layer, vector(packetBytes)"
vector 150  Topo.server2.udp  rcvdPk:vector(packetBytes)  ETV
attr interpolationmode  none
attr source  rcvdPk
attr title  "packets received, vector(packetBytes)"
vector 155  Topo.server2.udp  rcvdPkLifetime:vector  ETV
attr interpolationmode  none
attr source  messageAge(rcvdPk)
attr title  "received packet lifetime, vector"
attr unit  s
vector 154  Topo.server2.udp  delay:vector  ETV
attr interpolationmode  none
attr source  delay
attr title  "delay, vector"
vector 151  Topo.server2.udp  passedUpPk:vector(count)  ETV
attr interpolationmode  none
attr title  "packets passed up, vector(count)"
vector 145  Topo.server2.udpApp[0]  rcvdPk:vector(packetBytes)  ETV
attr interpolationmode  none
attr source  rcvdPk
attr title  "packets received, vector(packetBytes)"
vector 146  Topo.server2.udpApp[0]  rcvdPk:vector(count)  ETV
attr interpolationmode  none
attr source  rcvdPk
attr title  "packets received, vector(count)"
vector 176  Topo.server3.udpApp[0]  rcvdAppPkt:vector  ETV
attr interpolationmode  none
attr source  rcvdAppPkt
attr title  "packets received during sec, vector"
vector 118  Topo.server1.udpApp[0]  rcvdAppPkt:vector  ETV
attr interpolationmode  none
attr source  rcvdAppPkt
attr title  "packets received during sec, vector"
vector 147  Topo.server2.udpApp[0]  rcvdAppPkt:vector  ETV
attr interpolationmode  none
attr source  rcvdAppPkt
attr title  "packets received during sec, vector"
vector 59  Topo.client3.udpApp[0]  sentPk:vector(packetBytes)  ETV
attr interpolationmode  none
attr source  sentPk
attr title  "packets sent, vector(packetBytes)"
vector 61  Topo.client3.udp  sentPk:vector(packetBytes)  ETV
attr interpolationmode  none
attr source  sentPk
attr title  "packets sent, vector(packetBytes)"
vector 62  Topo.client3.udp  sentPk:vector(count)  ETV
attr interpolationmode  none
attr source  sentPk
attr title  "packets sent, vector(count)"
vector 70  Topo.client3.networkLayer.arp  sentReq:vector  ETV
attr title  "ARP request sent, vector"
vector 84  Topo.client3.eth[0].encap  encapPk:vector(packetBytes)  ETV
attr interpolationmode  none
attr source  encapPk
attr title  "packets encapsulated, vector(packetBytes)"
vector 80  Topo.client3.eth[0].mac  rxPkFromHL:vector(packetBytes)  ETV
attr interpolationmode  none
attr source  rxPkFromHL
attr title  "packet bytes from higher layer, vector(packetBytes)"
vector 75  Topo.client3.eth[0].mac  txPk:vector(packetBytes)  ETV
attr interpolationmode  none
attr source  txPk
attr title  "packets transmitted, vector(packetBytes)"
vector 226  Topo.s1.etherMAC[2]  rxPkOk:vector(packetBytes)  ETV
attr interpolationmode  none
attr source  rxPkOk
attr title  "packets received OK, vector(packetBytes)"
vector 227  Topo.s1.etherMAC[2]  passedUpPk:vector(packetBytes)  ETV
attr interpolationmode  none
attr source  packetSentToUpper
attr title  "packets passed to higher layer, vector(packetBytes)"
1	181	0.1	1250
1	646	0.2	1250
1	1306	0.3	1250
1	1530	0.4	1250
1	1949	0.5	1250
1	2174	0.6	1250
1	3030	0.7	1250
1	3254	0.8	1250
1	3673	0.9	1250
1	3897	1	1250
1	4316	1.1	1250
1	4541	1.2	1250
1	5156	1.3	1250
1	5380	1.4	1250
1	5799	1.5	1250
1	6023	1.6	1250
1	6442	1.7	1250
1	6667	1.8	1250
1	7282	1.9	1250
1	7507	2	1250
1	8363	2.1	1250
1	8587	2.2	1250
1	9006	2.3	1250
1	9231	2.4	1250
1	9846	2.5	1250
1	10070	2.6	1250
1	10489	2.7	1250
1	10713	2.8	1250
1	11132	2.9	1250
1	11357	3	1250
1	11972	3.1	1250
1	12196	3.2	1250
1	12615	3.3	1250
1	12839	3.4	1250
1	13258	3.5	1250
1	13483	3.6	1250
1	14098	3.7	1250
1	14322	3.8	1250
1	14741	3.9	1250
1	14966	4	1250
1	15581	4.1	1250
1	15806	4.2	1250
1	16421	4.3	1250
1	16645	4.4	1250
1	17064	4.5	1250
1	17288	4.6	1250
1	17707	4.7	1250
1	17932	4.8	1250
1	18547	4.9	1250
1	18771	5	1250
1	19190	5.1	1250
1	19414	5.2	1250
1	19833	5.3	1250
1	20058	5.4	1250
1	20673	5.5	1250
1	20897	5.6	1250
1	21316	5.7	1250
1	21540	5.8	1250
1	21959	5.9	1250
1	22185	6	1250
1	22996	6.1	1250
1	23220	6.2	1250
1	23639	6.3	1250
1	23863	6.4	1250
1	24282	6.5	1250
1	24507	6.6	1250
1	25122	6.7	1250
1	25346	6.8	1250
1	25765	6.9	1250
1	25989	7	1250
1	26408	7.1	1250
1	26633	7.2	1250
1	27248	7.3	1250
1	27472	7.4	1250
1	27891	7.5	1250
1	28115	7.6	1250
1	28534	7.7	1250
1	28759	7.8	1250
1	29374	7.9	1250
1	29599	8	1250
1	30214	8.1	1250
1	30438	8.2	1250
1	30857	8.3	1250
1	31082	8.4	1250
1	31697	8.5	1250
1	31921	8.6	1250
1	32340	8.7	1250
1	32564	8.8	1250
1	32983	8.9	1250
1	33208	9	1250
1	33823	9.1	1250
1	34047	9.2	1250
1	34466	9.3	1250
1	34690	9.4	1250
1	35109	9.5	1250
1	35334	9.6	1250
1	35949	9.7	1250
1	36173	9.8	1250
1	36592	9.9	1250
1	36817	10	1250
1	37432	10.1	1250
1	37657	10.2	1250
1	38272	10.3	1250
1	38496	10.4	1250
1	38915	10.5	1250
1	39139	10.6	1250
1	39558	10.7	1250
1	39783	10.8	1250
1	40398	10.9	1250
1	40622	11	1250
1	41041	11.1	1250
1	41265	11.2	1250
1	41684	11.3	1250
1	41909	11.4	1250
1	42524	11.5	1250
1	42748	11.6	1250
1	43167	11.7	1250
1	43391	11.8	1250
1	43810	11.9	1250
1	44036	12	1250
1	44847	12.1	1250
1	45071	12.2	1250
1	45490	12.3	1250
1	45714	12.4	1250
1	46133	12.5	1250
1	46358	12.6	1250
1	46973	12.7	1250
1	47197	12.8	1250
1	47616	12.9	1250
1	47840	13	1250
1	48259	13.1	1250
1	48484	13.2	1250
1	49099	13.3	1250
1	49323	13.4	1250
1	49742	13.5	1250
1	49966	13.6	1250
1	50385	13.7	1250
1	50610	13.8	1250
1	51225	13.9	1250
1	51450	14	1250
1	52065	14.1	1250
1	52289	14.2	1250
1	52708	14.3	1250
1	52933	14.4	1250
1	53548	14.5	1250
1	53772	14.6	1250
1	54191	14.7	1250
1	54415	14.8	1250
1	54834	14.9	1250
1	55059	15	1250
1	55674	15.1	1250
1	55898	15.2	1250
1	56317	15.3	1250
1	56541	15.4	1250
1	56960	15.5	1250
1	57185	15.6	1250
1	57800	15.7	1250
1	58024	15.8	1250
1	58443	15.9	1250
1	58668	16	1250
1	59283	16.1	1250
1	59508	16.2	1250
1	60123	16.3	1250
1	60347	16.4	1250
1	60766	16.5	1250
1	60990	16.6	1250
1	61409	16.7	1250
1	61634	16.8	1250
1	62249	16.9	1250
1	62473	17	1250
1	62892	17.1	1250
1	63116	17.2	1250
1	63535	17.3	1250
1	63760	17.4	1250
1	64375	17.5	1250
1	64599	17.6	1250
1	65018	17.7	1250
1	65242	17.8	1250
1	65661	17.9	1250
1	65887	18	1250
1	66698	18.1	1250
1	66922	18.2	1250
1	67341	18.3	1250
1	67565	18.4	1250
1	67984	18.5	1250
1	68209	18.6	1250
1	68824	18.7	1250
1	69048	18.8	1250
1	69467	18.9	1250
1	69691	19	1250
1	70110	19.1	1250
1	70335	19.2	1250
1	70950	19.3	1250
1	71174	19.4	1250
1	71593	19.5	1250
1	71817	19.6	1250
1	72236	19.7	1250
1	72461	19.8	1250
1	73076	19.9	1250
1	73302	20	1250
1	74400	20.1	1250
1	75100	20.2	1250
1	75995	20.3	1250
1	76696	20.4	1250
1	77787	20.5	1250
1	78487	20.6	1250
1	79382	20.7	1250
1	80082	20.8	1250
1	80977	20.9	1250
1	81679	21	1250
1	82421	21.1	1250
1	82661	21.2	1250
1	83096	21.3	1250
1	83336	21.4	1250
1	83771	21.5	1250
1	84012	21.6	1250
1	84643	21.7	1250
1	84883	21.8	1250
1	85318	21.9	1250
1	85559	22	1250
1	86190	22.1	1250
1	86431	22.2	1250
1	87062	22.3	1250
1	87302	22.4	1250
1	87737	22.5	1250
1	87977	22.6	1250
1	88412	22.7	1250
1	88653	22.8	1250
1	89284	22.9	1250
1	89524	23	1250
1	89959	23.1	1250
1	90199	23.2	1250
1	90634	23.3	1250
1	90875	23.4	1250
1	91506	23.5	1250
1	91746	23.6	1250
1	92181	23.7	1250
1	92421	23.8	1250
1	92856	23.9	1250
1	93098	24	1250
1	93925	24.1	1250
1	94165	24.2	1250
1	94600	24.3	1250
1	94840	24.4	1250
1	95275	24.5	1250
1	95516	24.6	1250
1	96147	24.7	1250
1	96387	24.8	1250
1	96822	24.9	1250
1	97062	25	1250
1	97497	25.1	1250
1	97738	25.2	1250
1	98369	25.3	1250
1	98609	25.4	1250
1	99044	25.5	1250
1	99284	25.6	1250
1	99719	25.7	1250
1	99960	25.8	1250
1	100591	25.9	1250
1	100832	26	1250
1	101463	26.1	1250
1	101703	26.2	1250
1	102138	26.3	1250
1	102379	26.4	1250
1	103010	26.5	1250
1	103250	26.6	1250
1	103685	26.7	1250
1	103925	26.8	1250
1	104360	26.9	1250
1	104601	27	1250
1	105232	27.1	1250
1	105472	27.2	1250
1	105907	27.3	1250
1	106147	27.4	1250
1	106582	27.5	1250
3	185	0.1	1258
3	652	0.2	1258
3	1308	0.3	1258
3	1534	0.4	1258
3	1951	0.5	1258
3	2182	0.6	1258
3	3032	0.7	1258
3	3258	0.8	1258
3	3675	0.9	1258
3	3901	1	1258
3	4318	1.1	1258
3	4547	1.2	1258
3	5158	1.3	1258
3	5384	1.4	1258
3	5801	1.5	1258
3	6027	1.6	1258
3	6444	1.7	1258
3	6673	1.8	1258
3	7284	1.9	1258
3	7515	2	1258
3	8365	2.1	1258
3	8591	2.2	1258
3	9008	2.3	1258
3	9237	2.4	1258
3	9848	2.5	1258
3	10074	2.6	1258
3	10491	2.7	1258
3	10717	2.8	1258
3	11134	2.9	1258
3	11363	3	1258
3	11974	3.1	1258
3	12200	3.2	1258
3	12617	3.3	1258
3	12843	3.4	1258
3	13260	3.5	1258
3	13489	3.6	1258
3	14100	3.7	1258
3	14326	3.8	1258
3	14743	3.9	1258
3	14972	4	1258
3	15583	4.1	1258
3	15812	4.2	1258
3	16423	4.3	1258
3	16649	4.4	1258
3	17066	4.5	1258
3	17292	4.6	1258
3	17709	4.7	1258
3	17938	4.8	1258
3	18549	4.9	1258
3	18775	5	1258
3	19192	5.1	1258
3	19418	5.2	1258
3	19835	5.3	1258
3	20064	5.4	1258
3	20675	5.5	1258
3	20901	5.6	1258
3	21318	5.7	1258
3	21544	5.8	1258
3	21961	5.9	1258
3	22193	6	1258
3	22998	6.1	1258
3	23224	6.2	1258
3	23641	6.3	1258
3	23867	6.4	1258
3	24284	6.5	1258
3	24513	6.6	1258
3	25124	6.7	1258
3	25350	6.8	1258
3	25767	6.9	1258
3	25993	7	1258
3	26410	7.1	1258
3	26639	7.2	1258
3	27250	7.3	1258
3	27476	7.4	1258
3	27893	7.5	1258
3	28119	7.6	1258
3	28536	7.7	1258
3	28765	7.8	1258
3	29376	7.9	1258
3	29605	8	1258
3	30216	8.1	1258
3	30442	8.2	1258
3	30859	8.3	1258
3	31088	8.4	1258
3	31699	8.5	1258
3	31925	8.6	1258
3	32342	8.7	1258
3	32568	8.8	1258
3	32985	8.9	1258
3	33214	9	1258
3	33825	9.1	1258
3	34051	9.2	1258
3	34468	9.3	1258
3	34694	9.4	1258
3	35111	9.5	1258
3	35340	9.6	1258
3	35951	9.7	1258
3	36177	9.8	1258
3	36594	9.9	1258
3	36823	10	1258
3	37434	10.1	1258
3	37663	10.2	1258
3	38274	10.3	1258
3	38500	10.4	1258
3	38917	10.5	1258
3	39143	10.6	1258
3	39560	10.7	1258
3	39789	10.8	1258
3	40400	10.9	1258
3	40626	11	1258
3	41043	11.1	1258
3	41269	11.2	1258
3	41686	11.3	1258
3	41915	11.4	1258
3	42526	11.5	1258
3	42752	11.6	1258
3	43169	11.7	1258
3	43395	11.8	1258
3	43812	11.9	1258
3	44044	12	1258
3	44849	12.1	1258
3	45075	12.2	1258
3	45492	12.3	1258
3	45718	12.4	1258
3	46135	12.5	1258
3	46364	12.6	1258
3	46975	12.7	1258
3	47201	12.8	1258
3	47618	12.9	1258
3	47844	13	1258
3	48261	13.1	1258
3	48490	13.2	1258
3	49101	13.3	1258
3	49327	13.4	1258
3	49744	13.5	1258
3	49970	13.6	1258
3	50387	13.7	1258
3	50616	13.8	1258
3	51227	13.9	1258
3	51456	14	1258
3	52067	14.1	1258
3	52293	14.2	1258
3	52710	14.3	1258