file 3419986 1492070293                                         
version 2
run simple_attack_host-0-20170413-09:57:54-7666
attr configname simple_attack_host
attr datetime 20170413-09:57:54
attr experiment simple_attack_host
attr inifile omnetpp.ini
attr iterationvars ""
attr iterationvars2 $repetition=0
attr measurement ""
attr network Topo
attr processid 7666
attr repetition 0
attr replication #0
attr resultdir results
attr runnumber 0
attr seedset 0

vector 354  Topo.s1.tcp  tcpRcvQueueBytes  ETV
vector 341  Topo.s1.tcp  "advertised window"  ETV
vector 340  Topo.s1.tcp  "receive window"  ETV
vector 343  Topo.s1.tcp  "sent ack"  ETV
vector 283  Topo.s1.networkLayer.arp  sentReq:vector  ETV
attr title  "ARP request sent, vector"
vector 294  Topo.s1.eth[0].encap  encapPk:vector(packetBytes)  ETV
attr interpolationmode  none
attr source  encapPk
attr title  "packets encapsulated, vector(packetBytes)"
vector 290  Topo.s1.eth[0].mac  rxPkFromHL:vector(packetBytes)  ETV
attr interpolationmode  none
attr source  rxPkFromHL
attr title  "packet bytes from higher layer, vector(packetBytes)"
vector 285  Topo.s1.eth[0].mac  txPk:vector(packetBytes)  ETV
attr interpolationmode  none
attr source  txPk
attr title  "packets transmitted, vector(packetBytes)"
vector 304  Topo.controller.eth[0].mac  rxPkOk:vector(packetBytes)  ETV
attr interpolationmode  none
attr source  rxPkOk
attr title  "packets received OK, vector(packetBytes)"
vector 305  Topo.controller.eth[0].mac  passedUpPk:vector(packetBytes)  ETV
attr interpolationmode  none
attr source  packetSentToUpper
attr title  "packets passed to higher layer, vector(packetBytes)"
vector 313  Topo.controller.eth[0].encap  decapPk:vector(packetBytes)  ETV
attr interpolationmode  none
attr source  decapPk
attr title  "packets decapsulated, vector(packetBytes)"
vector 299  Topo.controller.networkLayer.arp  sentReply:vector  ETV
attr title  "ARP replies sent, vector"
vector 312  Topo.controller.eth[0].encap  encapPk:vector(packetBytes)  ETV
attr interpolationmode  none
attr source  encapPk
attr title  "packets encapsulated, vector(packetBytes)"
vector 308  Topo.controller.eth[0].mac  rxPkFromHL:vector(packetBytes)  ETV
attr interpolationmode  none
attr source  rxPkFromHL
attr title  "packet bytes from higher layer, vector(packetBytes)"
vector 303  Topo.controller.eth[0].mac  txPk:vector(packetBytes)  ETV
attr interpolationmode  none
attr source  txPk
attr title  "packets transmitted, vector(packetBytes)"
vector 286  Topo.s1.eth[0].mac  rxPkOk:vector(packetBytes)  ETV
attr interpolationmode  none
attr source  rxPkOk
attr title  "packets received OK, vector(packetBytes)"
vector 287  Topo.s1.eth[0].mac  passedUpPk:vector(packetBytes)  ETV
attr interpolationmode  none
attr source  packetSentToUpper
attr title  "packets passed to higher layer, vector(packetBytes)"
vector 295  Topo.s1.eth[0].encap  decapPk:vector(packetBytes)  ETV
attr interpolationmode  none
attr source  decapPk
attr title  "packets decapsulated, vector(packetBytes)"
vector 320  Topo.controller.tcp  "rcvd seq"  ETV
vector 321  Topo.controller.tcp  "rcvd ack"  ETV
vector 317  Topo.controller.tcp  "advertised window"  ETV
vector 315  Topo.controller.tcp  "send window"  ETV
vector 330  Topo.controller.tcp  tcpRcvQueueBytes  ETV
vector 316  Topo.controller.tcp  "receive window"  ETV
vector 319  Topo.controller.tcp  "sent ack"  ETV
vector 344  Topo.s1.tcp  "rcvd seq"  ETV
vector 345  Topo.s1.tcp  "rcvd ack"  ETV
vector 339  Topo.s1.tcp  "send window"  ETV
vector 322  Topo.controller.tcp  "unacked bytes"  ETV
vector 318  Topo.controller.tcp  "sent seq"  ETV
vector 347  Topo.s1.tcp  "rcvd dupAcks"  ETV
vector 342  Topo.s1.tcp  "sent seq"  ETV
vector 346  Topo.s1.tcp  "unacked bytes"  ETV
vector 334  Topo.controller.tcp  "measured RTT"  ETV
vector 335  Topo.controller.tcp  "smoothed RTT"  ETV
vector 336  Topo.controller.tcp  RTTVAR  ETV
vector 337  Topo.controller.tcp  RTO  ETV
vector 332  Topo.controller.tcp  cwnd  ETV
vector 323  Topo.controller.tcp  "rcvd dupAcks"  ETV
vector 358  Topo.s1.tcp  "measured RTT"  ETV
vector 359  Topo.s1.tcp  "smoothed RTT"  ETV
vector 360  Topo.s1.tcp  RTTVAR  ETV
vector 361  Topo.s1.tcp  RTO  ETV
vector 356  Topo.s1.tcp  cwnd  ETV
vector 1  Topo.client1.udpApp[0]  sentPk:vector(packetBytes)  ETV
attr interpolationmode  none
attr source  sentPk
attr title  "packets sent, vector(packetBytes)"
vector 3  Topo.client1.udp  sentPk:vector(packetBytes)  ETV
attr interpolationmode  none
attr source  sentPk
attr title  "packets sent, vector(packetBytes)"
vector 4  Topo.client1.udp  sentPk:vector(count)  ETV
attr interpolationmode  none
attr source  sentPk
attr title  "packets sent, vector(count)"
vector 12  Topo.client1.networkLayer.arp  sentReq:vector  ETV
attr title  "ARP request sent, vector"
vector 26  Topo.client1.eth[0].encap  encapPk:vector(packetBytes)  ETV
attr interpolationmode  none
attr source  encapPk
attr title  "packets encapsulated, vector(packetBytes)"
vector 22  Topo.client1.eth[0].mac  rxPkFromHL:vector(packetBytes)  ETV
attr interpolationmode  none
attr source  rxPkFromHL
attr title  "packet bytes from higher layer, vector(packetBytes)"
vector 17  Topo.client1.eth[0].mac  txPk:vector(packetBytes)  ETV
attr interpolationmode  none
attr source  txPk
attr title  "packets transmitted, vector(packetBytes)"
vector 204  Topo.s1.etherMAC[0]  rxPkOk:vector(packetBytes)  ETV
attr interpolationmode  none
attr source  rxPkOk
attr title  "packets received OK, vector(packetBytes)"
vector 205  Topo.s1.etherMAC[0]  passedUpPk:vector(packetBytes)  ETV
attr interpolationmode  none
attr source  packetSentToUpper
attr title  "packets passed to higher layer, vector(packetBytes)"
vector 281  Topo.s1.ofa_switch  myRtt:vector  ETV
attr interpolation  none
attr source  myRtt
attr title  "RTT for packet out direction, vector"
vector 219  Topo.s1.etherMAC[1]  rxPkFromHL:vector(packetBytes)  ETV
attr interpolationmode  none
attr source  rxPkFromHL
attr title  "packet bytes from higher layer, vector(packetBytes)"
vector 230  Topo.s1.etherMAC[2]  rxPkFromHL:vector(packetBytes)  ETV
attr interpolationmode  none
attr source  rxPkFromHL
attr title  "packet bytes from higher layer, vector(packetBytes)"
vector 241  Topo.s1.etherMAC[3]  rxPkFromHL:vector(packetBytes)  ETV
attr interpolationmode  none
attr source  rxPkFromHL
attr title  "packet bytes from higher layer, vector(packetBytes)"
vector 252  Topo.s1.etherMAC[4]  rxPkFromHL:vector(packetBytes)  ETV
attr interpolationmode  none
attr source  rxPkFromHL
attr title  "packet bytes from higher layer, vector(packetBytes)"
vector 263  Topo.s1.etherMAC[5]  rxPkFromHL:vector(packetBytes)  ETV
attr interpolationmode  none
attr source  rxPkFromHL
attr title  "packet bytes from higher layer, vector(packetBytes)"
vector 274  Topo.s1.etherMAC[6]  rxPkFromHL:vector(packetBytes)  ETV
attr interpolationmode  none
attr source  rxPkFromHL
attr title  "packet bytes from higher layer, vector(packetBytes)"
vector 214  Topo.s1.etherMAC[1]  txPk:vector(packetBytes)  ETV
attr interpolationmode  none
attr source  txPk
attr title  "packets transmitted, vector(packetBytes)"
vector 225  Topo.s1.etherMAC[2]  txPk:vector(packetBytes)  ETV
attr interpolationmode  none
attr source  txPk
attr title  "packets transmitted, vector(packetBytes)"
vector 236  Topo.s1.etherMAC[3]  txPk:vector(packetBytes)  ETV
attr interpolationmode  none
attr source  txPk
attr title  "packets transmitted, vector(packetBytes)"
vector 247  Topo.s1.etherMAC[4]  txPk:vector(packetBytes)  ETV
attr interpolationmode  none
attr source  txPk
attr title  "packets transmitted, vector(packetBytes)"
vector 258  Topo.s1.etherMAC[5]  txPk:vector(packetBytes)  ETV
attr interpolationmode  none
attr source  txPk
attr title  "packets transmitted, vector(packetBytes)"
vector 269  Topo.s1.etherMAC[6]  txPk:vector(packetBytes)  ETV
attr interpolationmode  none
attr source  txPk
attr title  "packets transmitted, vector(packetBytes)"
vector 47  Topo.client2.eth[0].mac  rxPkOk:vector(packetBytes)  ETV
attr interpolationmode  none
attr source  rxPkOk
attr title  "packets received OK, vector(packetBytes)"
vector 48  Topo.client2.eth[0].mac  passedUpPk:vector(packetBytes)  ETV
attr interpolationmode  none
attr source  packetSentToUpper
attr title  "packets passed to higher layer, vector(packetBytes)"
vector 76  Topo.client3.eth[0].mac  rxPkOk:vector(packetBytes)  ETV
attr interpolationmode  none
attr source  rxPkOk
attr title  "packets received OK, vector(packetBytes)"
vector 77  Topo.client3.eth[0].mac  passedUpPk:vector(packetBytes)  ETV
attr interpolationmode  none
attr source  packetSentToUpper
attr title  "packets passed to higher layer, vector(packetBytes)"
vector 105  Topo.client4.eth[0].mac  rxPkOk:vector(packetBytes)  ETV
attr interpolationmode  none
attr source  rxPkOk
attr title  "packets received OK, vector(packetBytes)"
vector 106  Topo.client4.eth[0].mac  passedUpPk:vector(packetBytes)  ETV
attr interpolationmode  none
attr source  packetSentToUpper
attr title  "packets passed to higher layer, vector(packetBytes)"
vector 134  Topo.server1.eth[0].mac  rxPkOk:vector(packetBytes)  ETV
attr interpolationmode  none
attr source  rxPkOk
attr title  "packets received OK, vector(packetBytes)"
vector 135  Topo.server1.eth[0].mac  passedUpPk:vector(packetBytes)  ETV
attr interpolationmode  none
attr source  packetSentToUpper
attr title  "packets passed to higher layer, vector(packetBytes)"
vector 163  Topo.server2.eth[0].mac  rxPkOk:vector(packetBytes)  ETV
attr interpolationmode  none
attr source  rxPkOk
attr title  "packets received OK, vector(packetBytes)"
vector 164  Topo.server2.eth[0].mac  passedUpPk:vector(packetBytes)  ETV
attr interpolationmode  none
attr source  packetSentToUpper
attr title  "packets passed to higher layer, vector(packetBytes)"
vector 192  Topo.server3.eth[0].mac  rxPkOk:vector(packetBytes)  ETV
attr interpolationmode  none
attr source  rxPkOk
attr title  "packets received OK, vector(packetBytes)"
vector 193  Topo.server3.eth[0].mac  passedUpPk:vector(packetBytes)  ETV
attr interpolationmode  none
attr source  packetSentToUpper
attr title  "packets passed to higher layer, vector(packetBytes)"
vector 56  Topo.client2.eth[0].encap  decapPk:vector(packetBytes)  ETV
attr interpolationmode  none
attr source  decapPk
attr title  "packets decapsulated, vector(packetBytes)"
vector 85  Topo.client3.eth[0].encap  decapPk:vector(packetBytes)  ETV
attr interpolationmode  none
attr source  decapPk
attr title  "packets decapsulated, vector(packetBytes)"
vector 114  Topo.client4.eth[0].encap  decapPk:vector(packetBytes)  ETV
attr interpolationmode  none
attr source  decapPk
attr title  "packets decapsulated, vector(packetBytes)"
vector 143  Topo.server1.eth[0].encap  decapPk:vector(packetBytes)  ETV
attr interpolationmode  none
attr source  decapPk
attr title  "packets decapsulated, vector(packetBytes)"
vector 172  Topo.server2.eth[0].encap  decapPk:vector(packetBytes)  ETV
attr interpolationmode  none
attr source  decapPk
attr title  "packets decapsulated, vector(packetBytes)"
vector 201  Topo.server3.eth[0].encap  decapPk:vector(packetBytes)  ETV
attr interpolationmode  none
attr source  decapPk
attr title  "packets decapsulated, vector(packetBytes)"
vector 129  Topo.server1.networkLayer.arp  sentReply:vector  ETV
attr title  "ARP replies sent, vector"
vector 142  Topo.server1.eth[0].encap  encapPk:vector(packetBytes)  ETV
attr interpolationmode  none
attr source  encapPk
attr title  "packets encapsulated, vector(packetBytes)"
vector 138  Topo.server1.eth[0].mac  rxPkFromHL:vector(packetBytes)  ETV
attr interpolationmode  none
attr source  rxPkFromHL
attr title  "packet bytes from higher layer, vector(packetBytes)"
vector 133  Topo.server1.eth[0].mac  txPk:vector(packetBytes)  ETV
attr interpolationmode  none
attr source  txPk
attr title  "packets transmitted, vector(packetBytes)"
vector 248  Topo.s1.etherMAC[4]  rxPkOk:vector(packetBytes)  ETV
attr interpolationmode  none
attr source  rxPkOk
attr title  "packets received OK, vector(packetBytes)"
vector 249  Topo.s1.etherMAC[4]  passedUpPk:vector(packetBytes)  ETV
attr interpolationmode  none
attr source  packetSentToUpper
attr title  "packets passed to higher layer, vector(packetBytes)"
vector 208  Topo.s1.etherMAC[0]  rxPkFromHL:vector(packetBytes)  ETV
attr interpolationmode  none
attr source  rxPkFromHL
attr title  "packet bytes from higher layer, vector(packetBytes)"
vector 203  Topo.s1.etherMAC[0]  txPk:vector(packetBytes)  ETV
attr interpolationmode  none
attr source  txPk
attr title  "packets transmitted, vector(packetBytes)"
vector 18  Topo.client1.eth[0].mac  rxPkOk:vector(packetBytes)  ETV
attr interpolationmode  none
attr source  rxPkOk
attr title  "packets received OK, vector(packetBytes)"
vector 19  Topo.client1.eth[0].mac  passedUpPk:vector(packetBytes)  ETV
attr interpolationmode  none
attr source  packetSentToUpper
attr title  "packets passed to higher layer, vector(packetBytes)"
vector 27  Topo.client1.eth[0].encap  decapPk:vector(packetBytes)  ETV
attr interpolationmode  none
attr source  decapPk
attr title  "packets decapsulated, vector(packetBytes)"
vector 121  Topo.server1.udp  rcvdPk:vector(packetBytes)  ETV
attr interpolationmode  none
attr source  rcvdPk
attr title  "packets received, vector(packetBytes)"
vector 126  Topo.server1.udp  rcvdPkLifetime:vector  ETV
attr interpolationmode  none
attr source  messageAge(rcvdPk)
attr title  "received packet lifetime, vector"
attr unit  s
vector 125  Topo.server1.udp  delay:vector  ETV
attr interpolationmode  none
attr source  delay
attr title  "delay, vector"
vector 122  Topo.server1.udp  passedUpPk:vector(count)  ETV
attr interpolationmode  none
attr title  "packets passed up, vector(count)"
vector 116  Topo.server1.udpApp[0]  rcvdPk:vector(packetBytes)  ETV
attr interpolationmode  none
attr source  rcvdPk
attr title  "packets received, vector(packetBytes)"
vector 117  Topo.server1.udpApp[0]  rcvdPk:vector(count)  ETV
attr interpolationmode  none
attr source  rcvdPk
attr title  "packets received, vector(count)"
vector 88  Topo.client4.udpApp[0]  sentPk:vector(packetBytes)  ETV
attr interpolationmode  none
attr source  sentPk
attr title  "packets sent, vector(packetBytes)"
vector 90  Topo.client4.udp  sentPk:vector(packetBytes)  ETV
attr interpolationmode  none
attr source  sentPk
attr title  "packets sent, vector(packetBytes)"
vector 91  Topo.client4.udp  sentPk:vector(count)  ETV
attr interpolationmode  none
attr source  sentPk
attr title  "packets sent, vector(count)"
vector 99  Topo.client4.networkLayer.arp  sentReq:vector  ETV
attr title  "ARP request sent, vector"
vector 113  Topo.client4.eth[0].encap  encapPk:vector(packetBytes)  ETV
attr interpolationmode  none
attr source  encapPk
attr title  "packets encapsulated, vector(packetBytes)"
vector 109  Topo.client4.eth[0].mac  rxPkFromHL:vector(packetBytes)  ETV
attr interpolationmode  none
attr source  rxPkFromHL
attr title  "packet bytes from higher layer, vector(packetBytes)"
vector 104  Topo.client4.eth[0].mac  txPk:vector(packetBytes)  ETV
attr interpolationmode  none
attr source  txPk
attr title  "packets transmitted, vector(packetBytes)"
vector 237  Topo.s1.etherMAC[3]  rxPkOk:vector(packetBytes)  ETV
attr interpolationmode  none
attr source  rxPkOk
attr title  "packets received OK, vector(packetBytes)"
vector 238  Topo.s1.etherMAC[3]  passedUpPk:vector(packetBytes)  ETV
attr interpolationmode  none
attr source  packetSentToUpper
attr title  "packets passed to higher layer, vector(packetBytes)"
vector 187  Topo.server3.networkLayer.arp  sentReply:vector  ETV
attr title  "ARP replies sent, vector"
vector 200  Topo.server3.eth[0].encap  encapPk:vector(packetBytes)  ETV
attr interpolationmode  none
attr source  encapPk
attr title  "packets encapsulated, vector(packetBytes)"
vector 196  Topo.server3.eth[0].mac  rxPkFromHL:vector(packetBytes)  ETV
attr interpolationmode  none
attr source  rxPkFromHL
attr title  "packet bytes from higher layer, vector(packetBytes)"
vector 191  Topo.server3.eth[0].mac  txPk:vector(packetBytes)  ETV
attr interpolationmode  none
attr source  txPk
attr title  "packets transmitted, vector(packetBytes)"
vector 270  Topo.s1.etherMAC[6]  rxPkOk:vector(packetBytes)  ETV
attr interpolationmode  none
attr source  rxPkOk
attr title  "packets received OK, vector(packetBytes)"
vector 271  Topo.s1.etherMAC[6]  passedUpPk:vector(packetBytes)  ETV
attr interpolationmode  none
attr source  packetSentToUpper
attr title  "packets passed to higher layer, vector(packetBytes)"
vector 179  Topo.server3.udp  rcvdPk:vector(packetBytes)  ETV
attr interpolationmode  none
attr source  rcvdPk
attr title  "packets received, vector(packetBytes)"
vector 184  Topo.server3.udp  rcvdPkLifetime:vector  ETV
attr interpolationmode  none
attr source  messageAge(rcvdPk)
attr title  "received packet lifetime, vector"
attr unit  s
vector 183  Topo.server3.udp  delay:vector  ETV
attr interpolationmode  none
attr source  delay
attr title  "delay, vector"
vector 180  Topo.server3.udp  passedUpPk:vector(count)  ETV
attr interpolationmode  none
attr title  "packets passed up, vector(count)"
vector 174  Topo.server3.udpApp[0]  rcvdPk:vector(packetBytes)  ETV
attr interpolationmode  none
attr source  rcvdPk
attr title  "packets received, vector(packetBytes)"
vector 175  Topo.server3.udpApp[0]  rcvdPk:vector(count)  ETV
attr interpolationmode  none
attr source  rcvdPk
attr title  "packets received, vector(count)"
vector 30  Topo.client2.udpApp[0]  sentPk:vector(packetBytes)  ETV
attr interpolationmode  none
attr source  sentPk
attr title  "packets sent, vector(packetBytes)"
vector 32  Topo.client2.udp  sentPk:vector(packetBytes)  ETV
attr interpolationmode  none
attr source  sentPk
attr title  "packets sent, vector(packetBytes)"
vector 33  Topo.client2.udp  sentPk:vector(count)  ETV
attr interpolationmode  none
attr source  sentPk
attr title  "packets sent, vector(count)"
vector 41  Topo.client2.networkLayer.arp  sentReq:vector  ETV
attr title  "ARP request sent, vector"
vector 55  Topo.client2.eth[0].encap  encapPk:vector(packetBytes)  ETV
attr interpolationmode  none
attr source  encapPk
attr title  "packets encapsulated, vector(packetBytes)"
vector 51  Topo.client2.eth[0].mac  rxPkFromHL:vector(packetBytes)  ETV
attr interpolationmode  none
attr source  rxPkFromHL
attr title  "packet bytes from higher layer, vector(packetBytes)"
vector 46  Topo.client2.eth[0].mac  txPk:vector(packetBytes)  ETV
attr interpolationmode  none
attr source  txPk
attr title  "packets transmitted, vector(packetBytes)"
vector 215  Topo.s1.etherMAC[1]  rxPkOk:vector(packetBytes)  ETV
attr interpolationmode  none
attr source  rxPkOk
attr title  "packets received OK, vector(packetBytes)"
vector 216  Topo.s1.etherMAC[1]  passedUpPk:vector(packetBytes)  ETV
attr interpolationmode  none
attr source  packetSentToUpper
attr title  "packets passed to higher layer, vector(packetBytes)"
vector 158  Topo.server2.networkLayer.arp  sentReply:vector  ETV
attr title  "ARP replies sent, vector"
vector 171  Topo.server2.eth[0].encap  encapPk:vector(packetBytes)  ETV
attr interpolationmode  none
attr source  encapPk
attr title  "packets encapsulated, vector(packetBytes)"
vector 167  Topo.server2.eth[0].mac  rxPkFromHL:vector(packetBytes)  ETV
attr interpolationmode  none
attr source  rxPkFromHL
attr title  "packet bytes from higher layer, vector(packetBytes)"
vector 162  Topo.server2.eth[0].mac  txPk:vector(packetBytes)  ETV
attr interpolationmode  none
attr source  txPk
attr title  "packets transmitted, vector(packetBytes)"
vector 259  Topo.s1.etherMAC[5]  rxPkOk:vector(packetBytes)  ETV
attr interpolationmode  none
attr source  rxPkOk
attr title  "packets received OK, vector(packetBytes)"
vector 260  Topo.s1.etherMAC[5]  passedUpPk:vector(packetBytes)  ETV
attr interpolationmode  none
attr source  packetSentToUpper
attr title  "packets passed to higher layer, vector(packetBytes)"
vector 150  Topo.server2.udp  rcvdPk:vector(packetBytes)  ETV
attr interpolationmode  none
attr source  rcvdPk
attr title  "packets received, vector(packetBytes)"
vector 155  Topo.server2.udp  rcvdPkLifetime:vector  ETV
attr interpolationmode  none
attr source  messageAge(rcvdPk)
attr title  "received packet lifetime, vector"
attr unit  s
vector 154  Topo.server2.udp  delay:vector  ETV
attr interpolationmode  none
attr source  delay
attr title  "delay, vector"
vector 151  Topo.server2.udp  passedUpPk:vector(count)  ETV
attr interpolationmode  none
attr title  "packets passed up, vector(count)"
vector 145  Topo.server2.udpApp[0]  rcvdPk:vector(packetBytes)  ETV
attr interpolationmode  none
attr source  rcvdPk
attr title  "packets received, vector(packetBytes)"
vector 146  Topo.server2.udpApp[0]  rcvdPk:vector(count)  ETV
attr interpolationmode  none
attr source  rcvdPk
attr title  "packets received, vector(count)"
vector 176  Topo.server3.udpApp[0]  rcvdAppPkt:vector  ETV
attr interpolationmode  none
attr source  rcvdAppPkt
attr title  "packets received during sec, vector"
vector 118  Topo.server1.udpApp[0]  rcvdAppPkt:vector  ETV
attr interpolationmode  none
attr source  rcvdAppPkt
attr title  "packets received during sec, vector"
vector 147  Topo.server2.udpApp[0]  rcvdAppPkt:vector  ETV
attr interpolationmode  none
attr source  rcvdAppPkt
attr title  "packets received during sec, vector"
vector 59  Topo.client3.udpApp[0]  sentPk:vector(packetBytes)  ETV
attr interpolationmode  none
attr source  sentPk
attr title  "packets sent, vector(packetBytes)"
vector 61  Topo.client3.udp  sentPk:vector(packetBytes)  ETV
attr interpolationmode  none
attr source  sentPk
attr title  "packets sent, vector(packetBytes)"
vector 62  Topo.client3.udp  sentPk:vector(count)  ETV
attr interpolationmode  none
attr source  sentPk
attr title  "packets sent, vector(count)"
vector 70  Topo.client3.networkLayer.arp  sentReq:vector  ETV
attr title  "ARP request sent, vector"
vector 84  Topo.client3.eth[0].encap  encapPk:vector(packetBytes)  ETV
attr interpolationmode  none
attr source  encapPk
attr title  "packets encapsulated, vector(packetBytes)"
vector 80  Topo.client3.eth[0].mac  rxPkFromHL:vector(packetBytes)  ETV
attr interpolationmode  none
attr source  rxPkFromHL
attr title  "packet bytes from higher layer, vector(packetBytes)"
vector 75  Topo.client3.eth[0].mac  txPk:vector(packetBytes)  ETV
attr interpolationmode  none
attr source  txPk
attr title  "packets transmitted, vector(packetBytes)"
vector 226  Topo.s1.etherMAC[2]  rxPkOk:vector(packetBytes)  ETV
attr interpolationmode  none
attr source  rxPkOk
attr title  "packets received OK, vector(packetBytes)"
vector 227  Topo.s1.etherMAC[2]  passedUpPk:vector(packetBytes)  ETV
attr interpolationmode  none
attr source  packetSentToUpper
attr title  "packets passed to higher layer, vector(packetBytes)"
1	22782 4787 181 106582 0.1 27.5 275 1250 1250 343750 429687500
3	27569 4787 185 106584 0.1 27.5 275 1258 1258 345950 435205100
4	32356 4404 185 106584 0.1 27.5 275 1 275 37950 6970150
12	36760 13 187 187 0.1 0.1 1 1 1 1 1
17	36773 7066 193 106591 0.10000576 27.50010432 276 64 1296 356464 461898496
18	43839 102 416 7621 0.100099919998 2.000043199999 4 64 64 256 16384
19	43941 102 416 7621 0.100099919998 2.000043199999 4 64 64 256 16384
22	44043 5087 191 106589 0.1 27.5 276 64 1296 356464 461898496
26	49130 5087 190 106588 0.1 27.5 276 28 1278 351478 449153884
27	54217 102 418 7628 0.100099919998 2.000043199999 4 28 28 112 3136
30	54319 819 2172 104599 0.6 27 45 1250 1250 56250 70312500
32	55138 819 2180 104605 0.6 27 45 1258 1258 56610 71215380
33	55957 720 2180 104605 0.6 27 45 1 45 1035 31395
41	56677 14 2186 2186 0.6 0.6 1 1 1 1 1
46	56691 1178 2202 104626 0.60000576 27.00010432 46 64 1296 58384 75586816
47	57869 102 279 7622 0.100043199999 2.000043199999 4 64 64 256 16384
48	57971 102 279 7622 0.100043199999 2.000043199999 4 64 64 256 16384
51	58073 845 2198 104620 0.6 27 46 64 1296 58384 75586816
55	58918 845 2195 104617 0.6 27 46 28 1278 57538 73498564
56	59763 102 286 7629 0.100043199999 2.000043199999 4 28 28 112 3136
59	59865 217 7505 100830 2 26 13 1250 1250 16250 20312500
61	60082 8443 7513 106815 2 27.574999999745 317 9 1258 19090 20597956
62	68525 8930 7513 106815 2 27.574999999745 317 1 317 50403 10668635
70	77455 12 7519 7519 2 2 1 1 1 1 1
75	77467 1500 7535 100857 2.00000576 26.00010432 55 64 1296 19536 22007040
76	78967 102 280 7758 0.100043199999 2.000099919998 4 64 64 256 16384
77	79069 102 280 7758 0.100043199999 2.000099919998 4 64 64 256 16384
80	79171 1365 7531 100851 2 26 55 64 1296 19536 22007040
84	80536 1365 7528 100848 2 26 55 28 1278 17831 21267957
85	81901 102 287 7760 0.100043199999 2.000099919998 4 28 28 112 3136
88	82003 2495 645 106146 0.2 27.4 137 1250 1250 171250 214062500
90	84498 2495 651 106150 0.2 27.4 137 1258 1258 172346 216811268
91	86993 2250 651 106150 0.2 27.4 137 1 137 9453 866525
99	89243 13 655 655 0.2 0.2 1 1 1 1 1
104	89256 3671 666 106164 0.20000576 27.40010432 138 64 1296 177616 230111488
105	92927 106 281 7623 0.100043199999 2.000043199999 4 64 64 256 16384
106	93033 106 281 7623 0.100043199999 2.000043199999 4 64 64 256 16384
109	93139 2658 663 106160 0.2 27.4 138 64 1296 177616 230111488
113	95797 2658 661 106158 0.2 27.4 138 28 1278 175114 223760692
114	98455 106 288 7630 0.100043199999 2.000043199999 4 28 28 112 3136
116	98561 8419 644 106804 0.100569039992 27.500469119994 275 1250 1250 343750 429687500
117	106980 8036 644 106804 0.100569039992 27.500469119994 275 1 275 37950 6970150
118	115016 774 4315 105215 1.000611839988 27.000754559982 27 10 10 270 2700
121	115790 8419 642 106802 0.100569039992 27.500469119994 275 1258 1258 345950 435205100
122	124209 8036 642 106802 0.100569039992 27.500469119994 275 1 275 37950 6970150
125	132245 11169 642 106802 0.100569039992 27.500469119994 275 0.000469119994 0.000897279976 0.156367437202 9.2493954974486e-05
126	143414 11169 642 106802 0.100569039992 27.500469119994 275 0.000469119994 0.000897279976 0.156367437202 9.2493954974486e-05
129	154583 25 310 310 0.100043199999 0.100043199999 1 1 1 1 1
133	154608 26 320 320 0.100048959999 0.100048959999 1 64 64 64 4096
134	154634 8525 282 106797 0.100043199999 27.500469119994 279 64 1296 356656 461910784
135	163159 8525 282 106797 0.100043199999 27.500469119994 279 64 1296 356656 461910784
138	171684 26 318 318 0.100043199999 0.100043199999 1 64 64 64 4096
142	171710 26 317 317 0.100043199999 0.100043199999 1 28 28 28 784
143	171736 8525 289 106798 0.100043199999 27.500469119994 279 28 1278 351562 449156236
145	180261 2921 3029 104981 0.600754559982 27.000469119994 99 1 1250 72541 90625041
146	183182 2837 3029 104981 0.600754559982 27.000469119994 99 1 99 4950 328350
147	186019 748 4921 104981 1.200469119994 27.000469119994 27 1 42 99 1901
150	186767 2921 3027 104979 0.600754559982 27.000469119994 99 9 1258 73333 91792033
151	189688 2837 3027 104979 0.600754559982 27.000469119994 99 1 99 4950 328350
154	192525 3993 3027 104979 0.600754559982 27.000469119994 99 5.6719999e-05 0.000754559982 0.030961679551 1.4561130480018e-05
155	196518 3993 3027 104979 0.600754559982 27.000469119994 99 5.6719999e-05 0.000754559982 0.030961679551 1.4561130480018e-05
158	200511 52 2320 7653 0.600043199999 2.000043199999 2 1 1 2 2
162	200563 54 2329 7662 0.600048959999 2.000048959999 2 64 64 128 8192
163	200617 3068 283 104974 0.100043199999 27.000469119994 103 64 1296 78048 97602048
164	203685 3068 283 104974 0.100043199999 27.000469119994 103 64 1296 78048 97602048
167	206753 54 2327 7660 0.600043199999 2.000043199999 2 64 64 128 8192
171	206807 54 2326 7659 0.600043199999 2.000043199999 2 28 28 56 1568
172	206861 3068 290 104975 0.100043199999 27.000469119994 103 28 1278 75425 94768089
174	209929 4195 1305 106509 0.200611839988 27.400469119994 137 1250 1250 171250 214062500
175	214124 3950 1305 106509 0.200611839988 27.400469119994 137 1 137 9453 866525
176	218074 747 4259 105159 1.000469119994 27.000611839988 27 5 5 135 675
179	218821 4195 1303 106507 0.200611839988 27.400469119994 137 1258 1258 172346 216811268
180	223016 3950 1303 106507 0.200611839988 27.400469119994 137 1 137 9453 866525
183	226966 5565 1303 106507 0.200611839988 27.400469119994 137 0.000469119994 0.000754559982 0.072261758842 3.8952408615201e-05
184	232531 5565 1303 106507 0.200611839988 27.400469119994 137 0.000469119994 0.000754559982 0.072261758842 3.8952408615201e-05
187	238096 25 785 785 0.200043199999 0.200043199999 1 1 1 1 1
191	238121 26 793 793 0.200048959999 0.200048959999 1 64 64 64 4096
192	238147 4301 284 106502 0.100043199999 27.400469119994 141 64 1296 177808 230123776
193	242448 4301 284 106502 0.100043199999 27.400469119994 141 64 1296 177808 230123776
196	246749 26 791 791 0.200043199999 0.200043199999 1 64 64 64 4096
200	246775 26 790 790 0.200043199999 0.200043199999 1 28 28 28 784
201	246801 4301 291 106503 0.100043199999 27.400469119994 141 28 1278 175198 223763044
203	251102 106 412 7607 0.100098919998 2.000042199999 4 64 64 256 16384
204	251208 7342 195 106593 0.10000676 27.50010532 276 64 1296 356464 461898496
205	258550 7342 195 106593 0.10000676 27.50010532 276 64 1296 356464 461898496
208	265892 106 409 7599 0.100093159998 2.000036439999 4 64 64 256 16384
214	265998 106 265 7608 0.100042199999 2.000042199999 4 64 64 256 16384
215	266104 1224 2204 104632 0.60000676 27.00010532 46 64 1296 58384 75586816
216	267328 1224 2204 104632 0.60000676 27.00010532 46 64 1296 58384 75586816
219	268552 106 257 7600 0.100036439999 2.000036439999 4 64 64 256 16384
225	268658 106 266 7754 0.100042199999 2.000098919998 4 64 64 256 16384
226	268764 1555 7537 100863 2.00000676 26.00010532 55 64 1296 19536 22007040
227	270319 1555 7537 100863 2.00000676 26.00010532 55 64 1296 19536 22007040
230	271874 106 258 7751 0.100036439999 2.000093159998 4 64 64 256 16384
236	271980 106 267 7609 0.100042199999 2.000042199999 4 64 64 256 16384
237	272086 3671 668 106168 0.20000676 27.40010532 138 64 1296 177616 230111488