file 12907014 1493199538                                        
version 2
run simple_attack-0-20170426-11:38:51-25125
attr configname simple_attack
attr datetime 20170426-11:38:51
attr experiment simple_attack
attr inifile omnetpp.ini
attr iterationvars ""
attr iterationvars2 $repetition=0
attr measurement ""
attr network Topo
attr processid 25125
attr repetition 0
attr replication #0
attr resultdir results
attr runnumber 0
attr seedset 0

vector 354  Topo.s1.tcp  tcpRcvQueueBytes  ETV
vector 341  Topo.s1.tcp  "advertised window"  ETV
vector 340  Topo.s1.tcp  "receive window"  ETV
vector 343  Topo.s1.tcp  "sent ack"  ETV
vector 283  Topo.s1.networkLayer.arp  sentReq:vector  ETV
attr title  "ARP request sent, vector"
vector 294  Topo.s1.eth[0].encap  encapPk:vector(packetBytes)  ETV
attr interpolationmode  none
attr source  encapPk
attr title  "packets encapsulated, vector(packetBytes)"
vector 290  Topo.s1.eth[0].mac  rxPkFromHL:vector(packetBytes)  ETV
attr interpolationmode  none
attr source  rxPkFromHL
attr title  "packet bytes from higher layer, vector(packetBytes)"
vector 285  Topo.s1.eth[0].mac  txPk:vector(packetBytes)  ETV
attr interpolationmode  none
attr source  txPk
attr title  "packets transmitted, vector(packetBytes)"
vector 304  Topo.controller.eth[0].mac  rxPkOk:vector(packetBytes)  ETV
attr interpolationmode  none
attr source  rxPkOk
attr title  "packets received OK, vector(packetBytes)"
vector 305  Topo.controller.eth[0].mac  passedUpPk:vector(packetBytes)  ETV
attr interpolationmode  none
attr source  packetSentToUpper
attr title  "packets passed to higher layer, vector(packetBytes)"
vector 313  Topo.controller.eth[0].encap  decapPk:vector(packetBytes)  ETV
attr interpolationmode  none
attr source  decapPk
attr title  "packets decapsulated, vector(packetBytes)"
vector 299  Topo.controller.networkLayer.arp  sentReply:vector  ETV
attr title  "ARP replies sent, vector"
vector 312  Topo.controller.eth[0].encap  encapPk:vector(packetBytes)  ETV
attr interpolationmode  none
attr source  encapPk
attr title  "packets encapsulated, vector(packetBytes)"
vector 308  Topo.controller.eth[0].mac  rxPkFromHL:vector(packetBytes)  ETV
attr interpolationmode  none
attr source  rxPkFromHL
attr title  "packet bytes from higher layer, vector(packetBytes)"
vector 303  Topo.controller.eth[0].mac  txPk:vector(packetBytes)  ETV
attr interpolationmode  none
attr source  txPk
attr title  "packets transmitted, vector(packetBytes)"
vector 286  Topo.s1.eth[0].mac  rxPkOk:vector(packetBytes)  ETV
attr interpolationmode  none
attr source  rxPkOk
attr title  "packets received OK, vector(packetBytes)"
vector 287  Topo.s1.eth[0].mac  passedUpPk:vector(packetBytes)  ETV
attr interpolationmode  none
attr source  packetSentToUpper
attr title  "packets passed to higher layer, vector(packetBytes)"
vector 295  Topo.s1.eth[0].encap  decapPk:vector(packetBytes)  ETV
attr interpolationmode  none
attr source  decapPk
attr title  "packets decapsulated, vector(packetBytes)"
vector 320  Topo.controller.tcp  "rcvd seq"  ETV
vector 321  Topo.controller.tcp  "rcvd ack"  ETV
vector 317  Topo.controller.tcp  "advertised window"  ETV
vector 315  Topo.controller.tcp  "send window"  ETV
vector 330  Topo.controller.tcp  tcpRcvQueueBytes  ETV
vector 316  Topo.controller.tcp  "receive window"  ETV
vector 319  Topo.controller.tcp  "sent ack"  ETV
vector 344  Topo.s1.tcp  "rcvd seq"  ETV
vector 345  Topo.s1.tcp  "rcvd ack"  ETV
vector 339  Topo.s1.tcp  "send window"  ETV
vector 322  Topo.controller.tcp  "unacked bytes"  ETV
vector 318  Topo.controller.tcp  "sent seq"  ETV
vector 347  Topo.s1.tcp  "rcvd dupAcks"  ETV
vector 342  Topo.s1.tcp  "sent seq"  ETV
vector 346  Topo.s1.tcp  "unacked bytes"  ETV
vector 334  Topo.controller.tcp  "measured RTT"  ETV
vector 335  Topo.controller.tcp  "smoothed RTT"  ETV
vector 336  Topo.controller.tcp  RTTVAR  ETV
vector 337  Topo.controller.tcp  RTO  ETV
vector 332  Topo.controller.tcp  cwnd  ETV
vector 323  Topo.controller.tcp  "rcvd dupAcks"  ETV
vector 358  Topo.s1.tcp  "measured RTT"  ETV
vector 359  Topo.s1.tcp  "smoothed RTT"  ETV
vector 360  Topo.s1.tcp  RTTVAR  ETV
vector 361  Topo.s1.tcp  RTO  ETV
vector 356  Topo.s1.tcp  cwnd  ETV
vector 1  Topo.client1.udpApp[0]  sentPk:vector(packetBytes)  ETV
attr interpolationmode  none
attr source  sentPk
attr title  "packets sent, vector(packetBytes)"
vector 3  Topo.client1.udp  sentPk:vector(packetBytes)  ETV
attr interpolationmode  none
attr source  sentPk
attr title  "packets sent, vector(packetBytes)"
vector 4  Topo.client1.udp  sentPk:vector(count)  ETV
attr interpolationmode  none
attr source  sentPk
attr title  "packets sent, vector(count)"
vector 12  Topo.client1.networkLayer.arp  sentReq:vector  ETV
attr title  "ARP request sent, vector"
vector 26  Topo.client1.eth[0].encap  encapPk:vector(packetBytes)  ETV
attr interpolationmode  none
attr source  encapPk
attr title  "packets encapsulated, vector(packetBytes)"
vector 22  Topo.client1.eth[0].mac  rxPkFromHL:vector(packetBytes)  ETV
attr interpolationmode  none
attr source  rxPkFromHL
attr title  "packet bytes from higher layer, vector(packetBytes)"
vector 17  Topo.client1.eth[0].mac  txPk:vector(packetBytes)  ETV
attr interpolationmode  none
attr source  txPk
attr title  "packets transmitted, vector(packetBytes)"
vector 204  Topo.s1.etherMAC[0]  rxPkOk:vector(packetBytes)  ETV
attr interpolationmode  none
attr source  rxPkOk
attr title  "packets received OK, vector(packetBytes)"
vector 205  Topo.s1.etherMAC[0]  passedUpPk:vector(packetBytes)  ETV
attr interpolationmode  none
attr source  packetSentToUpper
attr title  "packets passed to higher layer, vector(packetBytes)"
vector 281  Topo.s1.ofa_switch  myRtt:vector  ETV
attr interpolation  none
attr source  myRtt
attr title  "RTT for packet out direction, vector"
vector 219  Topo.s1.etherMAC[1]  rxPkFromHL:vector(packetBytes)  ETV
attr interpolationmode  none
attr source  rxPkFromHL
attr title  "packet bytes from higher layer, vector(packetBytes)"
vector 230  Topo.s1.etherMAC[2]  rxPkFromHL:vector(packetBytes)  ETV
attr interpolationmode  none
attr source  rxPkFromHL
attr title  "packet bytes from higher layer, vector(packetBytes)"
vector 241  Topo.s1.etherMAC[3]  rxPkFromHL:vector(packetBytes)  ETV
attr interpolationmode  none
attr source  rxPkFromHL
attr title  "packet bytes from higher layer, vector(packetBytes)"
vector 252  Topo.s1.etherMAC[4]  rxPkFromHL:vector(packetBytes)  ETV
attr interpolationmode  none
attr source  rxPkFromHL
attr title  "packet bytes from higher layer, vector(packetBytes)"
vector 263  Topo.s1.etherMAC[5]  rxPkFromHL:vector(packetBytes)  ETV
attr interpolationmode  none
attr source  rxPkFromHL
attr title  "packet bytes from higher layer, vector(packetBytes)"
vector 274  Topo.s1.etherMAC[6]  rxPkFromHL:vector(packetBytes)  ETV
attr interpolationmode  none
attr source  rxPkFromHL
attr title  "packet bytes from higher layer, vector(packetBytes)"
vector 214  Topo.s1.etherMAC[1]  txPk:vector(packetBytes)  ETV
attr interpolationmode  none
attr source  txPk
attr title  "packets transmitted, vector(packetBytes)"
vector 225  Topo.s1.etherMAC[2]  txPk:vector(packetBytes)  ETV
attr interpolationmode  none
attr source  txPk
attr title  "packets transmitted, vector(packetBytes)"
vector 236  Topo.s1.etherMAC[3]  txPk:vector(packetBytes)  ETV
attr interpolationmode  none
attr source  txPk
attr title  "packets transmitted, vector(packetBytes)"
vector 247  Topo.s1.etherMAC[4]  txPk:vector(packetBytes)  ETV
attr interpolationmode  none
attr source  txPk
attr title  "packets transmitted, vector(packetBytes)"
vector 258  Topo.s1.etherMAC[5]  txPk:vector(packetBytes)  ETV
attr interpolationmode  none
attr source  txPk
attr title  "packets transmitted, vector(packetBytes)"
vector 269  Topo.s1.etherMAC[6]  txPk:vector(packetBytes)  ETV
attr interpolationmode  none
attr source  txPk
attr title  "packets transmitted, vector(packetBytes)"
vector 47  Topo.client2.eth[0].mac  rxPkOk:vector(packetBytes)  ETV
attr interpolationmode  none
attr source  rxPkOk
attr title  "packets received OK, vector(packetBytes)"
vector 48  Topo.client2.eth[0].mac  passedUpPk:vector(packetBytes)  ETV
attr interpolationmode  none
attr source  packetSentToUpper
attr title  "packets passed to higher layer, vector(packetBytes)"
vector 76  Topo.client3.eth[0].mac  rxPkOk:vector(packetBytes)  ETV
attr interpolationmode  none
attr source  rxPkOk
attr title  "packets received OK, vector(packetBytes)"
vector 77  Topo.client3.eth[0].mac  passedUpPk:vector(packetBytes)  ETV
attr interpolationmode  none
attr source  packetSentToUpper
attr title  "packets passed to higher layer, vector(packetBytes)"
vector 105  Topo.client4.eth[0].mac  rxPkOk:vector(packetBytes)  ETV
attr interpolationmode  none
attr source  rxPkOk
attr title  "packets received OK, vector(packetBytes)"
vector 106  Topo.client4.eth[0].mac  passedUpPk:vector(packetBytes)  ETV
attr interpolationmode  none
attr source  packetSentToUpper
attr title  "packets passed to higher layer, vector(packetBytes)"
vector 134  Topo.server1.eth[0].mac  rxPkOk:vector(packetBytes)  ETV
attr interpolationmode  none
attr source  rxPkOk
attr title  "packets received OK, vector(packetBytes)"
vector 135  Topo.server1.eth[0].mac  passedUpPk:vector(packetBytes)  ETV
attr interpolationmode  none
attr source  packetSentToUpper
attr title  "packets passed to higher layer, vector(packetBytes)"
vector 163  Topo.server2.eth[0].mac  rxPkOk:vector(packetBytes)  ETV
attr interpolationmode  none
attr source  rxPkOk
attr title  "packets received OK, vector(packetBytes)"
vector 164  Topo.server2.eth[0].mac  passedUpPk:vector(packetBytes)  ETV
attr interpolationmode  none
attr source  packetSentToUpper
attr title  "packets passed to higher layer, vector(packetBytes)"
vector 192  Topo.server3.eth[0].mac  rxPkOk:vector(packetBytes)  ETV
attr interpolationmode  none
attr source  rxPkOk
attr title  "packets received OK, vector(packetBytes)"
vector 193  Topo.server3.eth[0].mac  passedUpPk:vector(packetBytes)  ETV
attr interpolationmode  none
attr source  packetSentToUpper
attr title  "packets passed to higher layer, vector(packetBytes)"
vector 56  Topo.client2.eth[0].encap  decapPk:vector(packetBytes)  ETV
attr interpolationmode  none
attr source  decapPk
attr title  "packets decapsulated, vector(packetBytes)"
vector 85  Topo.client3.eth[0].encap  decapPk:vector(packetBytes)  ETV
attr interpolationmode  none
attr source  decapPk
attr title  "packets decapsulated, vector(packetBytes)"
vector 114  Topo.client4.eth[0].encap  decapPk:vector(packetBytes)  ETV
attr interpolationmode  none
attr source  decapPk
attr title  "packets decapsulated, vector(packetBytes)"
vector 143  Topo.server1.eth[0].encap  decapPk:vector(packetBytes)  ETV
attr interpolationmode  none
attr source  decapPk
attr title  "packets decapsulated, vector(packetBytes)"
vector 172  Topo.server2.eth[0].encap  decapPk:vector(packetBytes)  ETV
attr interpolationmode  none
attr source  decapPk
attr title  "packets decapsulated, vector(packetBytes)"
vector 201  Topo.server3.eth[0].encap  decapPk:vector(packetBytes)  ETV
attr interpolationmode  none
attr source  decapPk
attr title  "packets decapsulated, vector(packetBytes)"
vector 129  Topo.server1.networkLayer.arp  sentReply:vector  ETV
attr title  "ARP replies sent, vector"
vector 142  Topo.server1.eth[0].encap  encapPk:vector(packetBytes)  ETV
attr interpolationmode  none
attr source  encapPk
attr title  "packets encapsulated, vector(packetBytes)"
vector 138  Topo.server1.eth[0].mac  rxPkFromHL:vector(packetBytes)  ETV
attr interpolationmode  none
attr source  rxPkFromHL
attr title  "packet bytes from higher layer, vector(packetBytes)"
vector 133  Topo.server1.eth[0].mac  txPk:vector(packetBytes)  ETV
attr interpolationmode  none
attr source  txPk
attr title  "packets transmitted, vector(packetBytes)"
vector 248  Topo.s1.etherMAC[4]  rxPkOk:vector(packetBytes)  ETV
attr interpolationmode  none
attr source  rxPkOk
attr title  "packets received OK, vector(packetBytes)"
vector 249  Topo.s1.etherMAC[4]  passedUpPk:vector(packetBytes)  ETV
attr interpolationmode  none
attr source  packetSentToUpper
attr title  "packets passed to higher layer, vector(packetBytes)"
vector 208  Topo.s1.etherMAC[0]  rxPkFromHL:vector(packetBytes)  ETV
attr interpolationmode  none
attr source  rxPkFromHL
attr title  "packet bytes from higher layer, vector(packetBytes)"
vector 203  Topo.s1.etherMAC[0]  txPk:vector(packetBytes)  ETV
attr interpolationmode  none
attr source  txPk
attr title  "packets transmitted, vector(packetBytes)"
vector 18  Topo.client1.eth[0].mac  rxPkOk:vector(packetBytes)  ETV
attr interpolationmode  none
attr source  rxPkOk
attr title  "packets received OK, vector(packetBytes)"
vector 19  Topo.client1.eth[0].mac  passedUpPk:vector(packetBytes)  ETV
attr interpolationmode  none
attr source  packetSentToUpper
attr title  "packets passed to higher layer, vector(packetBytes)"
vector 27  Topo.client1.eth[0].encap  decapPk:vector(packetBytes)  ETV
attr interpolationmode  none
attr source  decapPk
attr title  "packets decapsulated, vector(packetBytes)"
vector 121  Topo.server1.udp  rcvdPk:vector(packetBytes)  ETV
attr interpolationmode  none
attr source  rcvdPk
attr title  "packets received, vector(packetBytes)"
vector 126  Topo.server1.udp  rcvdPkLifetime:vector  ETV
attr interpolationmode  none
attr source  messageAge(rcvdPk)
attr title  "received packet lifetime, vector"
attr unit  s
vector 125  Topo.server1.udp  delay:vector  ETV
attr interpolationmode  none
attr source  delay
attr title  "delay, vector"
vector 122  Topo.server1.udp  passedUpPk:vector(count)  ETV
attr interpolationmode  none
attr title  "packets passed up, vector(count)"
vector 116  Topo.server1.udpApp[0]  rcvdPk:vector(packetBytes)  ETV
attr interpolationmode  none
attr source  rcvdPk
attr title  "packets received, vector(packetBytes)"
vector 117  Topo.server1.udpApp[0]  rcvdPk:vector(count)  ETV
attr interpolationmode  none
attr source  rcvdPk
attr title  "packets received, vector(count)"
vector 88  Topo.client4.udpApp[0]  sentPk:vector(packetBytes)  ETV
attr interpolationmode  none
attr source  sentPk
attr title  "packets sent, vector(packetBytes)"
vector 90  Topo.client4.udp  sentPk:vector(packetBytes)  ETV
attr interpolationmode  none
attr source  sentPk
attr title  "packets sent, vector(packetBytes)"
vector 91  Topo.client4.udp  sentPk:vector(count)  ETV
attr interpolationmode  none
attr source  sentPk
attr title  "packets sent, vector(count)"
vector 99  Topo.client4.networkLayer.arp  sentReq:vector  ETV
attr title  "ARP request sent, vector"
vector 113  Topo.client4.eth[0].encap  encapPk:vector(packetBytes)  ETV
attr interpolationmode  none
attr source  encapPk
attr title  "packets encapsulated, vector(packetBytes)"
vector 109  Topo.client4.eth[0].mac  rxPkFromHL:vector(packetBytes)  ETV
attr interpolationmode  none
attr source  rxPkFromHL
attr title  "packet bytes from higher layer, vector(packetBytes)"
vector 104  Topo.client4.eth[0].mac  txPk:vector(packetBytes)  ETV
attr interpolationmode  none
attr source  txPk
attr title  "packets transmitted, vector(packetBytes)"
vector 237  Topo.s1.etherMAC[3]  rxPkOk:vector(packetBytes)  ETV
attr interpolationmode  none
attr source  rxPkOk
attr title  "packets received OK, vector(packetBytes)"
vector 238  Topo.s1.etherMAC[3]  passedUpPk:vector(packetBytes)  ETV
attr interpolationmode  none
attr source  packetSentToUpper
attr title  "packets passed to higher layer, vector(packetBytes)"
vector 187  Topo.server3.networkLayer.arp  sentReply:vector  ETV
attr title  "ARP replies sent, vector"
vector 200  Topo.server3.eth[0].encap  encapPk:vector(packetBytes)  ETV
attr interpolationmode  none
attr source  encapPk
attr title  "packets encapsulated, vector(packetBytes)"
vector 196  Topo.server3.eth[0].mac  rxPkFromHL:vector(packetBytes)  ETV
attr interpolationmode  none
attr source  rxPkFromHL
attr title  "packet bytes from higher layer, vector(packetBytes)"
vector 191  Topo.server3.eth[0].mac  txPk:vector(packetBytes)  ETV
attr interpolationmode  none
attr source  txPk
attr title  "packets transmitted, vector(packetBytes)"
vector 270  Topo.s1.etherMAC[6]  rxPkOk:vector(packetBytes)  ETV
attr interpolationmode  none
attr source  rxPkOk
attr title  "packets received OK, vector(packetBytes)"
vector 271  Topo.s1.etherMAC[6]  passedUpPk:vector(packetBytes)  ETV
attr interpolationmode  none
attr source  packetSentToUpper
attr title  "packets passed to higher layer, vector(packetBytes)"
vector 179  Topo.server3.udp  rcvdPk:vector(packetBytes)  ETV
attr interpolationmode  none
attr source  rcvdPk
attr title  "packets received, vector(packetBytes)"
vector 184  Topo.server3.udp  rcvdPkLifetime:vector  ETV
attr interpolationmode  none
attr source  messageAge(rcvdPk)
attr title  "received packet lifetime, vector"
attr unit  s
vector 183  Topo.server3.udp  delay:vector  ETV
attr interpolationmode  none
attr source  delay
attr title  "delay, vector"
vector 180  Topo.server3.udp  passedUpPk:vector(count)  ETV
attr interpolationmode  none
attr title  "packets passed up, vector(count)"
vector 174  Topo.server3.udpApp[0]  rcvdPk:vector(packetBytes)  ETV
attr interpolationmode  none
attr source  rcvdPk
attr title  "packets received, vector(packetBytes)"
vector 175  Topo.server3.udpApp[0]  rcvdPk:vector(count)  ETV
attr interpolationmode  none
attr source  rcvdPk
attr title  "packets received, vector(count)"
vector 30  Topo.client2.udpApp[0]  sentPk:vector(packetBytes)  ETV
attr interpolationmode  none
attr source  sentPk
attr title  "packets sent, vector(packetBytes)"
vector 32  Topo.client2.udp  sentPk:vector(packetBytes)  ETV
attr interpolationmode  none
attr source  sentPk
attr title  "packets sent, vector(packetBytes)"
vector 33  Topo.client2.udp  sentPk:vector(count)  ETV
attr interpolationmode  none
attr source  sentPk
attr title  "packets sent, vector(count)"
vector 41  Topo.client2.networkLayer.arp  sentReq:vector  ETV
attr title  "ARP request sent, vector"
vector 55  Topo.client2.eth[0].encap  encapPk:vector(packetBytes)  ETV
attr interpolationmode  none
attr source  encapPk
attr title  "packets encapsulated, vector(packetBytes)"
vector 51  Topo.client2.eth[0].mac  rxPkFromHL:vector(packetBytes)  ETV
attr interpolationmode  none
attr source  rxPkFromHL
attr title  "packet bytes from higher layer, vector(packetBytes)"
vector 46  Topo.client2.eth[0].mac  txPk:vector(packetBytes)  ETV
attr interpolationmode  none
attr source  txPk
attr title  "packets transmitted, vector(packetBytes)"
vector 215  Topo.s1.etherMAC[1]  rxPkOk:vector(packetBytes)  ETV
attr interpolationmode  none
attr source  rxPkOk
attr title  "packets received OK, vector(packetBytes)"
vector 216  Topo.s1.etherMAC[1]  passedUpPk:vector(packetBytes)  ETV
attr interpolationmode  none
attr source  packetSentToUpper
attr title  "packets passed to higher layer, vector(packetBytes)"
vector 158  Topo.server2.networkLayer.arp  sentReply:vector  ETV
attr title  "ARP replies sent, vector"
vector 171  Topo.server2.eth[0].encap  encapPk:vector(packetBytes)  ETV
attr interpolationmode  none
attr source  encapPk
attr title  "packets encapsulated, vector(packetBytes)"
vector 167  Topo.server2.eth[0].mac  rxPkFromHL:vector(packetBytes)  ETV
attr interpolationmode  none
attr source  rxPkFromHL
attr title  "packet bytes from higher layer, vector(packetBytes)"
vector 162  Topo.server2.eth[0].mac  txPk:vector(packetBytes)  ETV
attr interpolationmode  none
attr source  txPk
attr title  "packets transmitted, vector(packetBytes)"
vector 259  Topo.s1.etherMAC[5]  rxPkOk:vector(packetBytes)  ETV
attr interpolationmode  none
attr source  rxPkOk
attr title  "packets received OK, vector(packetBytes)"
vector 260  Topo.s1.etherMAC[5]  passedUpPk:vector(packetBytes)  ETV
attr interpolationmode  none
attr source  packetSentToUpper
attr title  "packets passed to higher layer, vector(packetBytes)"
vector 150  Topo.server2.udp  rcvdPk:vector(packetBytes)  ETV
attr interpolationmode  none
attr source  rcvdPk
attr title  "packets received, vector(packetBytes)"
vector 155  Topo.server2.udp  rcvdPkLifetime:vector  ETV
attr interpolationmode  none
attr source  messageAge(rcvdPk)
attr title  "received packet lifetime, vector"
attr unit  s
vector 154  Topo.server2.udp  delay:vector  ETV
attr interpolationmode  none
attr source  delay
attr title  "delay, vector"
vector 151  Topo.server2.udp  passedUpPk:vector(count)  ETV
attr interpolationmode  none
attr title  "packets passed up, vector(count)"
vector 145  Topo.server2.udpApp[0]  rcvdPk:vector(packetBytes)  ETV
attr interpolationmode  none
attr source  rcvdPk
attr title  "packets received, vector(packetBytes)"
vector 146  Topo.server2.udpApp[0]  rcvdPk:vector(count)  ETV
attr interpolationmode  none
attr source  rcvdPk
attr title  "packets received, vector(count)"
vector 176  Topo.server3.udpApp[0]  rcvdAppPkt:vector  ETV
attr interpolationmode  none
attr source  rcvdAppPkt
attr title  "packets received during sec, vector"
vector 118  Topo.server1.udpApp[0]  rcvdAppPkt:vector  ETV
attr interpolationmode  none
attr source  rcvdAppPkt
attr title  "packets received during sec, vector"
vector 147  Topo.server2.udpApp[0]  rcvdAppPkt:vector  ETV
attr interpolationmode  none
attr source  rcvdAppPkt
attr title  "packets received during sec, vector"
vector 59  Topo.client3.udpApp[0]  sentPk:vector(packetBytes)  ETV
attr interpolationmode  none
attr source  sentPk
attr title  "packets sent, vector(packetBytes)"
vector 61  Topo.client3.udp  sentPk:vector(packetBytes)  ETV
attr interpolationmode  none
attr source  sentPk
attr title  "packets sent, vector(packetBytes)"
vector 62  Topo.client3.udp  sentPk:vector(count)  ETV
attr interpolationmode  none
attr source  sentPk
attr title  "packets sent, vector(count)"
vector 70  Topo.client3.networkLayer.arp  sentReq:vector  ETV
attr title  "ARP request sent, vector"
vector 84  Topo.client3.eth[0].encap  encapPk:vector(packetBytes)  ETV
attr interpolationmode  none
attr source  encapPk
attr title  "packets encapsulated, vector(packetBytes)"
vector 80  Topo.client3.eth[0].mac  rxPkFromHL:vector(packetBytes)  ETV
attr interpolationmode  none
attr source  rxPkFromHL
attr title  "packet bytes from higher layer, vector(packetBytes)"
vector 75  Topo.client3.eth[0].mac  txPk:vector(packetBytes)  ETV
attr interpolationmode  none
attr source  txPk
attr title  "packets transmitted, vector(packetBytes)"
vector 226  Topo.s1.etherMAC[2]  rxPkOk:vector(packetBytes)  ETV
attr interpolationmode  none
attr source  rxPkOk
attr title  "packets received OK, vector(packetBytes)"
vector 227  Topo.s1.etherMAC[2]  passedUpPk:vector(packetBytes)  ETV
attr interpolationmode  none
attr source  packetSentToUpper
attr title  "packets passed to higher layer, vector(packetBytes)"
1	22769 17453 181 384473 0.1 94.9 949 1250 1250 1186250 1482812500
3	40222 17453 185 384475 0.1 94.9 949 1258 1258 1193842 1501853236
4	57675 16396 185 384475 0.1 94.9 949 1 949 450775 285340575
12	74071 13 187 187 0.1 0.1 1 1 1 1 1
17	74084 25258 193 384482 0.10000576 94.90010432 950 64 1296 1229968 1593959680
18	99342 102 416 7621 0.100099919998 2.000043199999 4 64 64 256 16384
19	99444 102 416 7621 0.100099919998 2.000043199999 4 64 64 256 16384
22	99546 18427 191 384480 0.1 94.9 950 64 1296 1229968 1593959680
26	117973 18427 190 384479 0.1 94.9 950 28 1278 1212850 1549987300
27	136400 102 418 7628 0.100099919998 2.000043199999 4 28 28 112 3136
30	136502 3034 2172 383664 0.6 94.8 158 1250 1250 197500 246875000
32	139536 3034 2180 383670 0.6 94.8 158 1258 1258 198764 250045112
33	142570 2768 2180 383670 0.6 94.8 158 1 158 12561 1327279
41	145338 14 2186 2186 0.6 0.6 1 1 1 1 1
46	145352 4228 2202 383726 0.60000576 94.80010432 159 64 1296 204832 265383424
47	149580 102 279 7622 0.100043199999 2.000043199999 4 64 64 256 16384
48	149682 102 279 7622 0.100043199999 2.000043199999 4 64 64 256 16384
51	149784 3060 2198 383685 0.6 94.8 159 64 1296 204832 265383424
55	152844 3060 2195 383682 0.6 94.8 159 28 1278 201952 258059656
56	155904 102 286 7629 0.100043199999 2.000043199999 4 28 28 112 3136
59	156006 828 7505 380272 2 94 47 1250 1250 58750 73437500
61	156834 828 7513 380278 2 94 47 1258 1258 59126 74380508
62	157662 725 7513 380278 2 94 47 1 47 1128 35720
70	158387 12 7519 7519 2 2 1 1 1 1 1
75	158399 1277 7535 380334 2.00000576 94.00010432 48 64 1296 60976 78946048
76	159676 102 280 7758 0.100043199999 2.000099919998 4 64 64 256 16384
77	159778 102 280 7758 0.100043199999 2.000099919998 4 64 64 256 16384
80	159880 854 7531 380293 2 94 48 64 1296 60976 78946048
84	160734 854 7528 380290 2 94 48 28 1278 60094 76765132
85	161588 102 287 7760 0.100043199999 2.000099919998 4 28 28 112 3136
88	161690 9116 645 384696 0.2 95 475 1250 1250 593750 742187500
90	170806 9098 651 383671 0.2 94.8 474 1258 1258 596292 750135336
91	179904 8516 651 383671 0.2 94.8 474 1 474 112575 35611225
99	188420 13 655 655 0.2 0.2 1 1 1 1 1
104	188433 13104 666 383727 0.20000576 94.80010432 475 64 1296 614368 796142080
105	201537 106 281 7623 0.100043199999 2.000043199999 4 64 64 256 16384
106	201643 106 281 7623 0.100043199999 2.000043199999 4 64 64 256 16384
109	201749 9598 663 383686 0.2 94.8 475 64 1296 614368 796142080
113	211347 9598 661 383683 0.2 94.8 475 28 1278 605800 774177400
114	220945 106 288 7630 0.100043199999 2.000043199999 4 28 28 112 3136
116	221051 29936 644 384695 0.100569039992 94.900469119994 949 1250 1250 1186250 1482812500
117	250987 28879 644 384695 0.100569039992 94.900469119994 949 1 949 450775 285340575
118	279866 2767 4315 381080 1.000611839988 94.00079195993 94 10 10 940 9400
121	282633 29936 642 384693 0.100569039992 94.900469119994 949 1258 1258 1193842 1501853236
122	312569 28879 642 384693 0.100569039992 94.900469119994 949 1 949 450775 285340575
125	341448 39381 642 384693 0.100569039992 94.900469119994 949 0.000469119994 0.00093475995 0.54881150238901 0.00033208001709881
126	380829 39381 642 384693 0.100569039992 94.900469119994 949 0.000469119994 0.00093475995 0.54881150238901 0.00033208001709881
129	420210 25 310 310 0.100043199999 0.100043199999 1 1 1 1 1
133	420235 26 320 320 0.100048959999 0.100048959999 1 64 64 64 4096
134	420261 30042 282 384688 0.100043199999 94.900469119994 953 64 1296 1230160 1593971968
135	450303 30042 282 384688 0.100043199999 94.900469119994 953 64 1296 1230160 1593971968
138	480345 26 318 318 0.100043199999 0.100043199999 1 64 64 64 4096
142	480371 26 317 317 0.100043199999 0.100043199999 1 28 28 28 784
143	480397 30042 289 384689 0.100043199999 94.900469119994 953 28 1278 1212934 1549989652
145	510439 6473 3029 384241 0.600754559982 94.800506519942 205 1250 1250 256250 320312500
146	516912 6160 3029 384241 0.600754559982 94.800506519942 205 1 205 21115 2892755
147	523072 2685 4921 380849 1.200469119994 94.000506519942 94 1 3 203 481
150	525757 6473 3027 384239 0.600754559982 94.800506519942 205 1258 1258 257890 324425620
151	532230 6160 3027 384239 0.600754559982 94.800506519942 205 1 205 21115 2892755
154	538390 8517 3027 384239 0.600754559982 94.800506519942 205 0.000469119994 0.000754559982 0.102665554443 5.1948296291754e-05
155	546907 8517 3027 384239 0.600754559982 94.800506519942 205 0.000469119994 0.000754559982 0.102665554443 5.1948296291754e-05
158	555424 52 2320 7653 0.600043199999 2.000043199999 2 1 1 2 2
162	555476 54 2329 7662 0.600048959999 2.000048959999 2 64 64 128 8192
163	555530 12567 283 384234 0.100043199999 94.800506519942 397 64 1296 509584 660105472
164	568097 12567 283 384234 0.100043199999 94.800506519942 397 64 1296 509584 660105472
167	580664 54 2327 7660 0.600043199999 2.000043199999 2 64 64 128 8192
171	580718 54 2326 7659 0.600043199999 2.000043199999 2 28 28 56 1568
172	580772 12567 290 384235 0.100043199999 94.800506519942 397 28 1278 502366 641883748
174	593339 14963 1305 384408 0.200611839988 94.800649239936 474 1250 1250 592500 740625000
175	608302 14381 1305 384408 0.200611839988 94.800649239936 474 1 474 112575 35611225
176	622683 2681 4259 381016 1.000469119994 94.000649239936 94 5 5 470 2350
179	625364 14963 1303 384406 0.200611839988 94.800649239936 474 1258 1258 596292 750135336
180	640327 14381 1303 384406 0.200611839988 94.800649239936 474 1 474 112575 35611225
183	654708 19690 1303 384406 0.200611839988 94.800649239936 474 0.000469119994 0.000792039956 0.258515748073 0.00014434498972916
184	674398 19690 1303 384406 0.200611839988 94.800649239936 474 0.000469119994 0.000792039956 0.258515748073 0.00014434498972916
187	694088 25 785 785 0.200043199999 0.200043199999 1 1 1 1 1
191	694113 26 793 793 0.200048959999 0.200048959999 1 64 64 64 4096
192	694139 15069 284 384401 0.100043199999 94.800649239936 478 64 1296 614560 796154368
193	709208 15069 284 384401 0.100043199999 94.800649239936 478 64 1296 614560 796154368
196	724277 26 791 791 0.200043199999 0.200043199999 1 64 64 64 4096
200	724303 26 790 790 0.200043199999 0.200043199999 1 28 28 28 784
201	724329 15069 291 384402 0.100043199999 94.800649239936 478 28 1278 605884 774179752
203	739398 106 412 7607 0.100098919998 2.000042199999 4 64 64 256 16384
204	739504 26208 195 384484 0.10000676 94.90010532 950 64 1296 1229968 1593959680
205	765712 26208 195 384484 0.10000676 94.90010532 950 64 1296 1229968 1593959680
208	791920 106 409 7599 0.100093159998 2.000036439999 4 64 64 256 16384
214	792026 106 265 7608 0.100042199999 2.000042199999 4 64 64 256 16384
215	792132 4387 2204 383739 0.60000676 94.80010532 159 64 1296 204832 265383424
216	796519 4387 2204 383739 0.60000676 94.80010532 159 64 1296 204832 265383424
219	800906 106 257 7600 0.100036439999 2.000036439999 4 64 64 256 16384
225	801012 106 266 7754 0.100042199999 2.000098919998 4 64 64 256 16384
226	801118 1325 7537 380347 2.00000676 94.00010532 48 64 1296 60976 78946048
227	802443 1325 7537 380347 2.00000676 94.00010532 48 64 1296 60976 78946048
230	803768 106 258 7751 0.100036439999 2.000093159998 4 64 64 256 16384