file 13446546 1479114697                                        
version 2
run simple_attack-0-20161114-10:11:29-12690
attr configname simple_attack
attr datetime 20161114-10:11:29
attr experiment simple_attack
attr inifile omnetpp.ini
attr iterationvars ""
attr iterationvars2 $repetition=0
attr measurement ""
attr network Topo
attr processid 12690
attr repetition 0
attr replication #0
attr resultdir results
attr runnumber 0
attr seedset 0

vector 329  Topo.s1.tcp  tcpRcvQueueBytes  ETV
vector 316  Topo.s1.tcp  "advertised window"  ETV
vector 315  Topo.s1.tcp  "receive window"  ETV
vector 318  Topo.s1.tcp  "sent ack"  ETV
vector 259  Topo.s1.networkLayer.arp  sentReq:vector  ETV
attr title  "ARP request sent, vector"
vector 270  Topo.s1.eth[0].encap  encapPk:vector(packetBytes)  ETV
attr interpolationmode  none
attr source  encapPk
attr title  "packets encapsulated, vector(packetBytes)"
vector 266  Topo.s1.eth[0].mac  rxPkFromHL:vector(packetBytes)  ETV
attr interpolationmode  none
attr source  rxPkFromHL
attr title  "packet bytes from higher layer, vector(packetBytes)"
vector 261  Topo.s1.eth[0].mac  txPk:vector(packetBytes)  ETV
attr interpolationmode  none
attr source  txPk
attr title  "packets transmitted, vector(packetBytes)"
vector 279  Topo.controller.eth[0].mac  rxPkOk:vector(packetBytes)  ETV
attr interpolationmode  none
attr source  rxPkOk
attr title  "packets received OK, vector(packetBytes)"
vector 280  Topo.controller.eth[0].mac  passedUpPk:vector(packetBytes)  ETV
attr interpolationmode  none
attr source  packetSentToUpper
attr title  "packets passed to higher layer, vector(packetBytes)"
vector 288  Topo.controller.eth[0].encap  decapPk:vector(packetBytes)  ETV
attr interpolationmode  none
attr source  decapPk
attr title  "packets decapsulated, vector(packetBytes)"
vector 274  Topo.controller.networkLayer.arp  sentReply:vector  ETV
attr title  "ARP replies sent, vector"
vector 287  Topo.controller.eth[0].encap  encapPk:vector(packetBytes)  ETV
attr interpolationmode  none
attr source  encapPk
attr title  "packets encapsulated, vector(packetBytes)"
vector 283  Topo.controller.eth[0].mac  rxPkFromHL:vector(packetBytes)  ETV
attr interpolationmode  none
attr source  rxPkFromHL
attr title  "packet bytes from higher layer, vector(packetBytes)"
vector 278  Topo.controller.eth[0].mac  txPk:vector(packetBytes)  ETV
attr interpolationmode  none
attr source  txPk
attr title  "packets transmitted, vector(packetBytes)"
vector 262  Topo.s1.eth[0].mac  rxPkOk:vector(packetBytes)  ETV
attr interpolationmode  none
attr source  rxPkOk
attr title  "packets received OK, vector(packetBytes)"
vector 263  Topo.s1.eth[0].mac  passedUpPk:vector(packetBytes)  ETV
attr interpolationmode  none
attr source  packetSentToUpper
attr title  "packets passed to higher layer, vector(packetBytes)"
vector 271  Topo.s1.eth[0].encap  decapPk:vector(packetBytes)  ETV
attr interpolationmode  none
attr source  decapPk
attr title  "packets decapsulated, vector(packetBytes)"
vector 295  Topo.controller.tcp  "rcvd seq"  ETV
vector 296  Topo.controller.tcp  "rcvd ack"  ETV
vector 292  Topo.controller.tcp  "advertised window"  ETV
vector 290  Topo.controller.tcp  "send window"  ETV
vector 305  Topo.controller.tcp  tcpRcvQueueBytes  ETV
vector 291  Topo.controller.tcp  "receive window"  ETV
vector 294  Topo.controller.tcp  "sent ack"  ETV
vector 319  Topo.s1.tcp  "rcvd seq"  ETV
vector 320  Topo.s1.tcp  "rcvd ack"  ETV
vector 314  Topo.s1.tcp  "send window"  ETV
vector 297  Topo.controller.tcp  "unacked bytes"  ETV
vector 293  Topo.controller.tcp  "sent seq"  ETV
vector 322  Topo.s1.tcp  "rcvd dupAcks"  ETV
vector 317  Topo.s1.tcp  "sent seq"  ETV
vector 321  Topo.s1.tcp  "unacked bytes"  ETV
vector 309  Topo.controller.tcp  "measured RTT"  ETV
vector 310  Topo.controller.tcp  "smoothed RTT"  ETV
vector 311  Topo.controller.tcp  RTTVAR  ETV
vector 312  Topo.controller.tcp  RTO  ETV
vector 307  Topo.controller.tcp  cwnd  ETV
vector 298  Topo.controller.tcp  "rcvd dupAcks"  ETV
vector 333  Topo.s1.tcp  "measured RTT"  ETV
vector 334  Topo.s1.tcp  "smoothed RTT"  ETV
vector 335  Topo.s1.tcp  RTTVAR  ETV
vector 336  Topo.s1.tcp  RTO  ETV
vector 331  Topo.s1.tcp  cwnd  ETV
vector 1  Topo.client1.udpApp[0]  sentPk:vector(packetBytes)  ETV
attr interpolationmode  none
attr source  sentPk
attr title  "packets sent, vector(packetBytes)"
vector 3  Topo.client1.udp  sentPk:vector(packetBytes)  ETV
attr interpolationmode  none
attr source  sentPk
attr title  "packets sent, vector(packetBytes)"
vector 4  Topo.client1.udp  sentPk:vector(count)  ETV
attr interpolationmode  none
attr source  sentPk
attr title  "packets sent, vector(count)"
vector 9  Topo.client1.networkLayer.arp  sentReq:vector  ETV
attr title  "ARP request sent, vector"
vector 23  Topo.client1.eth[0].encap  encapPk:vector(packetBytes)  ETV
attr interpolationmode  none
attr source  encapPk
attr title  "packets encapsulated, vector(packetBytes)"
vector 19  Topo.client1.eth[0].mac  rxPkFromHL:vector(packetBytes)  ETV
attr interpolationmode  none
attr source  rxPkFromHL
attr title  "packet bytes from higher layer, vector(packetBytes)"
vector 14  Topo.client1.eth[0].mac  txPk:vector(packetBytes)  ETV
attr interpolationmode  none
attr source  txPk
attr title  "packets transmitted, vector(packetBytes)"
vector 183  Topo.s1.etherMAC[0]  rxPkOk:vector(packetBytes)  ETV
attr interpolationmode  none
attr source  rxPkOk
attr title  "packets received OK, vector(packetBytes)"
vector 184  Topo.s1.etherMAC[0]  passedUpPk:vector(packetBytes)  ETV
attr interpolationmode  none
attr source  packetSentToUpper
attr title  "packets passed to higher layer, vector(packetBytes)"
vector 198  Topo.s1.etherMAC[1]  rxPkFromHL:vector(packetBytes)  ETV
attr interpolationmode  none
attr source  rxPkFromHL
attr title  "packet bytes from higher layer, vector(packetBytes)"
vector 209  Topo.s1.etherMAC[2]  rxPkFromHL:vector(packetBytes)  ETV
attr interpolationmode  none
attr source  rxPkFromHL
attr title  "packet bytes from higher layer, vector(packetBytes)"
vector 220  Topo.s1.etherMAC[3]  rxPkFromHL:vector(packetBytes)  ETV
attr interpolationmode  none
attr source  rxPkFromHL
attr title  "packet bytes from higher layer, vector(packetBytes)"
vector 231  Topo.s1.etherMAC[4]  rxPkFromHL:vector(packetBytes)  ETV
attr interpolationmode  none
attr source  rxPkFromHL
attr title  "packet bytes from higher layer, vector(packetBytes)"
vector 242  Topo.s1.etherMAC[5]  rxPkFromHL:vector(packetBytes)  ETV
attr interpolationmode  none
attr source  rxPkFromHL
attr title  "packet bytes from higher layer, vector(packetBytes)"
vector 253  Topo.s1.etherMAC[6]  rxPkFromHL:vector(packetBytes)  ETV
attr interpolationmode  none
attr source  rxPkFromHL
attr title  "packet bytes from higher layer, vector(packetBytes)"
vector 193  Topo.s1.etherMAC[1]  txPk:vector(packetBytes)  ETV
attr interpolationmode  none
attr source  txPk
attr title  "packets transmitted, vector(packetBytes)"
vector 204  Topo.s1.etherMAC[2]  txPk:vector(packetBytes)  ETV
attr interpolationmode  none
attr source  txPk
attr title  "packets transmitted, vector(packetBytes)"
vector 215  Topo.s1.etherMAC[3]  txPk:vector(packetBytes)  ETV
attr interpolationmode  none
attr source  txPk
attr title  "packets transmitted, vector(packetBytes)"
vector 226  Topo.s1.etherMAC[4]  txPk:vector(packetBytes)  ETV
attr interpolationmode  none
attr source  txPk
attr title  "packets transmitted, vector(packetBytes)"
vector 237  Topo.s1.etherMAC[5]  txPk:vector(packetBytes)  ETV
attr interpolationmode  none
attr source  txPk
attr title  "packets transmitted, vector(packetBytes)"
vector 248  Topo.s1.etherMAC[6]  txPk:vector(packetBytes)  ETV
attr interpolationmode  none
attr source  txPk
attr title  "packets transmitted, vector(packetBytes)"
vector 41  Topo.client2.eth[0].mac  rxPkOk:vector(packetBytes)  ETV
attr interpolationmode  none
attr source  rxPkOk
attr title  "packets received OK, vector(packetBytes)"
vector 42  Topo.client2.eth[0].mac  passedUpPk:vector(packetBytes)  ETV
attr interpolationmode  none
attr source  packetSentToUpper
attr title  "packets passed to higher layer, vector(packetBytes)"
vector 67  Topo.client3.eth[0].mac  rxPkOk:vector(packetBytes)  ETV
attr interpolationmode  none
attr source  rxPkOk
attr title  "packets received OK, vector(packetBytes)"
vector 68  Topo.client3.eth[0].mac  passedUpPk:vector(packetBytes)  ETV
attr interpolationmode  none
attr source  packetSentToUpper
attr title  "packets passed to higher layer, vector(packetBytes)"
vector 93  Topo.client4.eth[0].mac  rxPkOk:vector(packetBytes)  ETV
attr interpolationmode  none
attr source  rxPkOk
attr title  "packets received OK, vector(packetBytes)"
vector 94  Topo.client4.eth[0].mac  passedUpPk:vector(packetBytes)  ETV
attr interpolationmode  none
attr source  packetSentToUpper
attr title  "packets passed to higher layer, vector(packetBytes)"
vector 119  Topo.server1.eth[0].mac  rxPkOk:vector(packetBytes)  ETV
attr interpolationmode  none
attr source  rxPkOk
attr title  "packets received OK, vector(packetBytes)"
vector 120  Topo.server1.eth[0].mac  passedUpPk:vector(packetBytes)  ETV
attr interpolationmode  none
attr source  packetSentToUpper
attr title  "packets passed to higher layer, vector(packetBytes)"
vector 145  Topo.server2.eth[0].mac  rxPkOk:vector(packetBytes)  ETV
attr interpolationmode  none
attr source  rxPkOk
attr title  "packets received OK, vector(packetBytes)"
vector 146  Topo.server2.eth[0].mac  passedUpPk:vector(packetBytes)  ETV
attr interpolationmode  none
attr source  packetSentToUpper
attr title  "packets passed to higher layer, vector(packetBytes)"
vector 171  Topo.server3.eth[0].mac  rxPkOk:vector(packetBytes)  ETV
attr interpolationmode  none
attr source  rxPkOk
attr title  "packets received OK, vector(packetBytes)"
vector 172  Topo.server3.eth[0].mac  passedUpPk:vector(packetBytes)  ETV
attr interpolationmode  none
attr source  packetSentToUpper
attr title  "packets passed to higher layer, vector(packetBytes)"
vector 50  Topo.client2.eth[0].encap  decapPk:vector(packetBytes)  ETV
attr interpolationmode  none
attr source  decapPk
attr title  "packets decapsulated, vector(packetBytes)"
vector 76  Topo.client3.eth[0].encap  decapPk:vector(packetBytes)  ETV
attr interpolationmode  none
attr source  decapPk
attr title  "packets decapsulated, vector(packetBytes)"
vector 102  Topo.client4.eth[0].encap  decapPk:vector(packetBytes)  ETV
attr interpolationmode  none
attr source  decapPk
attr title  "packets decapsulated, vector(packetBytes)"
vector 128  Topo.server1.eth[0].encap  decapPk:vector(packetBytes)  ETV
attr interpolationmode  none
attr source  decapPk
attr title  "packets decapsulated, vector(packetBytes)"
vector 154  Topo.server2.eth[0].encap  decapPk:vector(packetBytes)  ETV
attr interpolationmode  none
attr source  decapPk
attr title  "packets decapsulated, vector(packetBytes)"
vector 180  Topo.server3.eth[0].encap  decapPk:vector(packetBytes)  ETV
attr interpolationmode  none
attr source  decapPk
attr title  "packets decapsulated, vector(packetBytes)"
vector 114  Topo.server1.networkLayer.arp  sentReply:vector  ETV
attr title  "ARP replies sent, vector"
vector 127  Topo.server1.eth[0].encap  encapPk:vector(packetBytes)  ETV
attr interpolationmode  none
attr source  encapPk
attr title  "packets encapsulated, vector(packetBytes)"
vector 123  Topo.server1.eth[0].mac  rxPkFromHL:vector(packetBytes)  ETV
attr interpolationmode  none
attr source  rxPkFromHL
attr title  "packet bytes from higher layer, vector(packetBytes)"
vector 118  Topo.server1.eth[0].mac  txPk:vector(packetBytes)  ETV
attr interpolationmode  none
attr source  txPk
attr title  "packets transmitted, vector(packetBytes)"
vector 227  Topo.s1.etherMAC[4]  rxPkOk:vector(packetBytes)  ETV
attr interpolationmode  none
attr source  rxPkOk
attr title  "packets received OK, vector(packetBytes)"
vector 228  Topo.s1.etherMAC[4]  passedUpPk:vector(packetBytes)  ETV
attr interpolationmode  none
attr source  packetSentToUpper
attr title  "packets passed to higher layer, vector(packetBytes)"
vector 187  Topo.s1.etherMAC[0]  rxPkFromHL:vector(packetBytes)  ETV
attr interpolationmode  none
attr source  rxPkFromHL
attr title  "packet bytes from higher layer, vector(packetBytes)"
vector 182  Topo.s1.etherMAC[0]  txPk:vector(packetBytes)  ETV
attr interpolationmode  none
attr source  txPk
attr title  "packets transmitted, vector(packetBytes)"
vector 15  Topo.client1.eth[0].mac  rxPkOk:vector(packetBytes)  ETV
attr interpolationmode  none
attr source  rxPkOk
attr title  "packets received OK, vector(packetBytes)"
vector 16  Topo.client1.eth[0].mac  passedUpPk:vector(packetBytes)  ETV
attr interpolationmode  none
attr source  packetSentToUpper
attr title  "packets passed to higher layer, vector(packetBytes)"
vector 24  Topo.client1.eth[0].encap  decapPk:vector(packetBytes)  ETV
attr interpolationmode  none
attr source  decapPk
attr title  "packets decapsulated, vector(packetBytes)"
vector 109  Topo.server1.udp  rcvdPk:vector(packetBytes)  ETV
attr interpolationmode  none
attr source  rcvdPk
attr title  "packets received, vector(packetBytes)"
vector 110  Topo.server1.udp  passedUpPk:vector(count)  ETV
attr interpolationmode  none
attr title  "packets passed up, vector(count)"
vector 104  Topo.server1.udpApp[0]  rcvdPk:vector(packetBytes)  ETV
attr interpolationmode  none
attr source  rcvdPk
attr title  "packets received, vector(packetBytes)"
vector 105  Topo.server1.udpApp[0]  rcvdPk:vector(count)  ETV
attr interpolationmode  none
attr source  rcvdPk
attr title  "packets received, vector(count)"
vector 79  Topo.client4.udpApp[0]  sentPk:vector(packetBytes)  ETV
attr interpolationmode  none
attr source  sentPk
attr title  "packets sent, vector(packetBytes)"
vector 81  Topo.client4.udp  sentPk:vector(packetBytes)  ETV
attr interpolationmode  none
attr source  sentPk
attr title  "packets sent, vector(packetBytes)"
vector 82  Topo.client4.udp  sentPk:vector(count)  ETV
attr interpolationmode  none
attr source  sentPk
attr title  "packets sent, vector(count)"
vector 87  Topo.client4.networkLayer.arp  sentReq:vector  ETV
attr title  "ARP request sent, vector"
vector 101  Topo.client4.eth[0].encap  encapPk:vector(packetBytes)  ETV
attr interpolationmode  none
attr source  encapPk
attr title  "packets encapsulated, vector(packetBytes)"
vector 97  Topo.client4.eth[0].mac  rxPkFromHL:vector(packetBytes)  ETV
attr interpolationmode  none
attr source  rxPkFromHL
attr title  "packet bytes from higher layer, vector(packetBytes)"
vector 92  Topo.client4.eth[0].mac  txPk:vector(packetBytes)  ETV
attr interpolationmode  none
attr source  txPk
attr title  "packets transmitted, vector(packetBytes)"
vector 216  Topo.s1.etherMAC[3]  rxPkOk:vector(packetBytes)  ETV
attr interpolationmode  none
attr source  rxPkOk
attr title  "packets received OK, vector(packetBytes)"
vector 217  Topo.s1.etherMAC[3]  passedUpPk:vector(packetBytes)  ETV
attr interpolationmode  none
attr source  packetSentToUpper
attr title  "packets passed to higher layer, vector(packetBytes)"
vector 166  Topo.server3.networkLayer.arp  sentReply:vector  ETV
attr title  "ARP replies sent, vector"
vector 179  Topo.server3.eth[0].encap  encapPk:vector(packetBytes)  ETV
attr interpolationmode  none
attr source  encapPk
attr title  "packets encapsulated, vector(packetBytes)"
vector 175  Topo.server3.eth[0].mac  rxPkFromHL:vector(packetBytes)  ETV
attr interpolationmode  none
attr source  rxPkFromHL
attr title  "packet bytes from higher layer, vector(packetBytes)"
vector 170  Topo.server3.eth[0].mac  txPk:vector(packetBytes)  ETV
attr interpolationmode  none
attr source  txPk
attr title  "packets transmitted, vector(packetBytes)"
vector 249  Topo.s1.etherMAC[6]  rxPkOk:vector(packetBytes)  ETV
attr interpolationmode  none
attr source  rxPkOk
attr title  "packets received OK, vector(packetBytes)"
vector 250  Topo.s1.etherMAC[6]  passedUpPk:vector(packetBytes)  ETV
attr interpolationmode  none
attr source  packetSentToUpper
attr title  "packets passed to higher layer, vector(packetBytes)"
vector 161  Topo.server3.udp  rcvdPk:vector(packetBytes)  ETV
attr interpolationmode  none
attr source  rcvdPk
attr title  "packets received, vector(packetBytes)"
vector 162  Topo.server3.udp  passedUpPk:vector(count)  ETV
attr interpolationmode  none
attr title  "packets passed up, vector(count)"
vector 156  Topo.server3.udpApp[0]  rcvdPk:vector(packetBytes)  ETV
attr interpolationmode  none
attr source  rcvdPk
attr title  "packets received, vector(packetBytes)"
vector 157  Topo.server3.udpApp[0]  rcvdPk:vector(count)  ETV
attr interpolationmode  none
attr source  rcvdPk
attr title  "packets received, vector(count)"
vector 27  Topo.client2.udpApp[0]  sentPk:vector(packetBytes)  ETV
attr interpolationmode  none
attr source  sentPk
attr title  "packets sent, vector(packetBytes)"
vector 29  Topo.client2.udp  sentPk:vector(packetBytes)  ETV
attr interpolationmode  none
attr source  sentPk
attr title  "packets sent, vector(packetBytes)"
vector 30  Topo.client2.udp  sentPk:vector(count)  ETV
attr interpolationmode  none
attr source  sentPk
attr title  "packets sent, vector(count)"
vector 35  Topo.client2.networkLayer.arp  sentReq:vector  ETV
attr title  "ARP request sent, vector"
vector 49  Topo.client2.eth[0].encap  encapPk:vector(packetBytes)  ETV
attr interpolationmode  none
attr source  encapPk
attr title  "packets encapsulated, vector(packetBytes)"
vector 45  Topo.client2.eth[0].mac  rxPkFromHL:vector(packetBytes)  ETV
attr interpolationmode  none
attr source  rxPkFromHL
attr title  "packet bytes from higher layer, vector(packetBytes)"
vector 40  Topo.client2.eth[0].mac  txPk:vector(packetBytes)  ETV
attr interpolationmode  none
attr source  txPk
attr title  "packets transmitted, vector(packetBytes)"
vector 194  Topo.s1.etherMAC[1]  rxPkOk:vector(packetBytes)  ETV
attr interpolationmode  none
attr source  rxPkOk
attr title  "packets received OK, vector(packetBytes)"
vector 195  Topo.s1.etherMAC[1]  passedUpPk:vector(packetBytes)  ETV
attr interpolationmode  none
attr source  packetSentToUpper
attr title  "packets passed to higher layer, vector(packetBytes)"
vector 140  Topo.server2.networkLayer.arp  sentReply:vector  ETV
attr title  "ARP replies sent, vector"
vector 153  Topo.server2.eth[0].encap  encapPk:vector(packetBytes)  ETV
attr interpolationmode  none
attr source  encapPk
attr title  "packets encapsulated, vector(packetBytes)"
vector 149  Topo.server2.eth[0].mac  rxPkFromHL:vector(packetBytes)  ETV
attr interpolationmode  none
attr source  rxPkFromHL
attr title  "packet bytes from higher layer, vector(packetBytes)"
vector 144  Topo.server2.eth[0].mac  txPk:vector(packetBytes)  ETV
attr interpolationmode  none
attr source  txPk
attr title  "packets transmitted, vector(packetBytes)"
vector 238  Topo.s1.etherMAC[5]  rxPkOk:vector(packetBytes)  ETV
attr interpolationmode  none
attr source  rxPkOk
attr title  "packets received OK, vector(packetBytes)"
vector 239  Topo.s1.etherMAC[5]  passedUpPk:vector(packetBytes)  ETV
attr interpolationmode  none
attr source  packetSentToUpper
attr title  "packets passed to higher layer, vector(packetBytes)"
vector 135  Topo.server2.udp  rcvdPk:vector(packetBytes)  ETV
attr interpolationmode  none
attr source  rcvdPk
attr title  "packets received, vector(packetBytes)"
vector 136  Topo.server2.udp  passedUpPk:vector(count)  ETV
attr interpolationmode  none
attr title  "packets passed up, vector(count)"
vector 130  Topo.server2.udpApp[0]  rcvdPk:vector(packetBytes)  ETV
attr interpolationmode  none
attr source  rcvdPk
attr title  "packets received, vector(packetBytes)"
vector 131  Topo.server2.udpApp[0]  rcvdPk:vector(count)  ETV
attr interpolationmode  none
attr source  rcvdPk
attr title  "packets received, vector(count)"
vector 158  Topo.server3.udpApp[0]  rcvdAppPkt:vector  ETV
attr interpolationmode  none
attr source  rcvdAppPkt
attr title  "packets received during sec, vector"
vector 106  Topo.server1.udpApp[0]  rcvdAppPkt:vector  ETV
attr interpolationmode  none
attr source  rcvdAppPkt
attr title  "packets received during sec, vector"
vector 132  Topo.server2.udpApp[0]  rcvdAppPkt:vector  ETV
attr interpolationmode  none
attr source  rcvdAppPkt
attr title  "packets received during sec, vector"
vector 53  Topo.client3.udpApp[0]  sentPk:vector(packetBytes)  ETV
attr interpolationmode  none
attr source  sentPk
attr title  "packets sent, vector(packetBytes)"
vector 55  Topo.client3.udp  sentPk:vector(packetBytes)  ETV
attr interpolationmode  none
attr source  sentPk
attr title  "packets sent, vector(packetBytes)"
vector 56  Topo.client3.udp  sentPk:vector(count)  ETV
attr interpolationmode  none
attr source  sentPk
attr title  "packets sent, vector(count)"
vector 61  Topo.client3.networkLayer.arp  sentReq:vector  ETV
attr title  "ARP request sent, vector"
vector 75  Topo.client3.eth[0].encap  encapPk:vector(packetBytes)  ETV
attr interpolationmode  none
attr source  encapPk
attr title  "packets encapsulated, vector(packetBytes)"
vector 71  Topo.client3.eth[0].mac  rxPkFromHL:vector(packetBytes)  ETV
attr interpolationmode  none
attr source  rxPkFromHL
attr title  "packet bytes from higher layer, vector(packetBytes)"
vector 66  Topo.client3.eth[0].mac  txPk:vector(packetBytes)  ETV
attr interpolationmode  none
attr source  txPk
attr title  "packets transmitted, vector(packetBytes)"
vector 205  Topo.s1.etherMAC[2]  rxPkOk:vector(packetBytes)  ETV
attr interpolationmode  none
attr source  rxPkOk
attr title  "packets received OK, vector(packetBytes)"
vector 206  Topo.s1.etherMAC[2]  passedUpPk:vector(packetBytes)  ETV
attr interpolationmode  none
attr source  packetSentToUpper
attr title  "packets passed to higher layer, vector(packetBytes)"
1	21713 17449 181 405864 0.1 94.9 949 1250 1250 1186250 1482812500
3	39162 17449 185 405866 0.1 94.9 949 1258 1258 1193842 1501853236
4	56611 16392 185 405866 0.1 94.9 949 1 949 450775 285340575
9	73003 12 187 187 0.1 0.1 1 1 1 1 1
14	73015 25255 193 405873 0.10000576 94.90010432 950 64 1296 1229968 1593959680
15	98270 102 416 7621 0.100099919998 2.000043199999 4 64 64 256 16384
16	98372 102 416 7621 0.100099919998 2.000043199999 4 64 64 256 16384
19	98474 18423 191 405871 0.1 94.9 950 64 1296 1229968 1593959680
23	116897 18423 190 405870 0.1 94.9 950 28 1278 1212850 1549987300
24	135320 102 418 7628 0.100099919998 2.000043199999 4 28 28 112 3136
27	135422 3034 2172 405023 0.6 94.8 158 1250 1250 197500 246875000
29	138456 3034 2180 405029 0.6 94.8 158 1258 1258 198764 250045112
30	141490 2768 2180 405029 0.6 94.8 158 1 158 12561 1327279
35	144258 14 2186 2186 0.6 0.6 1 1 1 1 1
40	144272 4228 2202 405178 0.60000576 94.80010432 159 64 1296 204832 265383424
41	148500 102 279 7622 0.100043199999 2.000043199999 4 64 64 256 16384
42	148602 102 279 7622 0.100043199999 2.000043199999 4 64 64 256 16384
45	148704 3060 2198 405044 0.6 94.8 159 64 1296 204832 265383424
49	151764 3060 2195 405041 0.6 94.8 159 28 1278 201952 258059656
50	154824 102 286 7629 0.100043199999 2.000043199999 4 28 28 112 3136
53	154926 828 7505 401331 2 94 47 1250 1250 58750 73437500
55	155754 828 7513 401337 2 94 47 1258 1258 59126 74380508
56	156582 725 7513 401337 2 94 47 1 47 1128 35720
61	157307 12 7519 7519 2 2 1 1 1 1 1
66	157319 1277 7535 401486 2.00000576 94.00010432 48 64 1296 60976 78946048
67	158596 102 280 7758 0.100043199999 2.000099919998 4 64 64 256 16384
68	158698 102 280 7758 0.100043199999 2.000099919998 4 64 64 256 16384
71	158800 854 7531 401352 2 94 48 64 1296 60976 78946048
75	159654 854 7528 401349 2 94 48 28 1278 60094 76765132
76	160508 102 287 7760 0.100043199999 2.000099919998 4 28 28 112 3136
79	160610 9114 645 406119 0.2 95 475 1250 1250 593750 742187500
81	169724 9096 651 405030 0.2 94.8 474 1258 1258 596292 750135336
82	178820 8514 651 405030 0.2 94.8 474 1 474 112575 35611225
87	187334 13 655 655 0.2 0.2 1 1 1 1 1
92	187347 12628 666 405179 0.20000576 94.80010432 475 64 1296 614368 796142080
93	199975 102 281 7623 0.100043199999 2.000043199999 4 64 64 256 16384
94	200077 102 281 7623 0.100043199999 2.000043199999 4 64 64 256 16384
97	200179 9121 663 405045 0.2 94.8 475 64 1296 614368 796142080
101	209300 9596 661 405042 0.2 94.8 475 28 1278 605800 774177400
102	218896 106 288 7630 0.100043199999 2.000043199999 4 28 28 112 3136
104	219002 29977 644 406118 0.100569039992 94.900469119994 949 1250 1250 1186250 1482812500
105	248979 28920 644 406118 0.100569039992 94.900469119994 949 1 949 450775 285340575
106	277899 2783 4315 402171 1.000611839988 94.000754559982 94 10 10 940 9400
109	280682 29977 642 406116 0.100569039992 94.900469119994 949 1258 1258 1193842 1501853236
110	310659 28920 642 406116 0.100569039992 94.900469119994 949 1 949 450775 285340575
114	339579 25 310 310 0.100043199999 0.100043199999 1 1 1 1 1
118	339604 26 320 320 0.100048959999 0.100048959999 1 64 64 64 4096
119	339630 30083 282 406111 0.100043199999 94.900469119994 953 64 1296 1230160 1593971968
120	369713 30083 282 406111 0.100043199999 94.900469119994 953 64 1296 1230160 1593971968
123	399796 26 318 318 0.100043199999 0.100043199999 1 64 64 64 4096
127	399822 26 317 317 0.100043199999 0.100043199999 1 28 28 28 784
128	399848 30083 289 406112 0.100043199999 94.900469119994 953 28 1278 1212934 1549989652
130	429931 11890 3029 405544 0.600754559982 94.800469119994 393 0 1250 256250 320312500
131	441821 11953 3029 405544 0.600754559982 94.800469119994 393 1 393 77421 20310109
132	453774 2674 4921 401485 1.200469119994 94.000047239952 94 1 6 388 1798
135	456448 11890 3027 405542 0.600754559982 94.800469119994 393 0 1258 257890 324425620
136	468338 11953 3027 405542 0.600754559982 94.800469119994 393 1 393 77421 20310109
140	480291 52 2320 7653 0.600043199999 2.000043199999 2 1 1 2 2
144	480343 54 2329 7662 0.600048959999 2.000048959999 2 64 64 128 8192
145	480397 12184 283 405537 0.100043199999 94.800469119994 397 64 1296 277968 345107712
146	492581 12184 283 405537 0.100043199999 94.800469119994 397 64 1296 277968 345107712
149	504765 54 2327 7660 0.600043199999 2.000043199999 2 64 64 128 8192
153	504819 54 2326 7659 0.600043199999 2.000043199999 2 28 28 56 1568
154	504873 11996 290 405538 0.100043199999 94.800469119994 397 0 1278 262102 334826356
156	516869 14974 1305 405762 0.200611839988 94.800611839988 474 1250 1250 592500 740625000
157	531843 14392 1305 405762 0.200611839988 94.800611839988 474 1 474 112575 35611225
158	546235 2689 4259 402070 1.000469119994 94.000611839988 94 5 5 470 2350
161	548924 14974 1303 405760 0.200611839988 94.800611839988 474 1258 1258 596292 750135336
162	563898 14392 1303 405760 0.200611839988 94.800611839988 474 1 474 112575 35611225
166	578290 25 785 785 0.200043199999 0.200043199999 1 1 1 1 1
170	578315 26 793 793 0.200048959999 0.200048959999 1 64 64 64 4096
171	578341 15080 284 405755 0.100043199999 94.800611839988 478 64 1296 614560 796154368
172	593421 15080 284 405755 0.100043199999 94.800611839988 478 64 1296 614560 796154368
175	608501 26 791 791 0.200043199999 0.200043199999 1 64 64 64 4096
179	608527 26 790 790 0.200043199999 0.200043199999 1 28 28 28 784
180	608553 15080 291 405756 0.100043199999 94.800611839988 478 28 1278 605884 774179752
182	623633 106 412 7607 0.100098919998 2.000042199999 4 64 64 256 16384
183	623739 26205 195 405875 0.10000676 94.90010532 950 64 1296 1229968 1593959680
184	649944 26205 195 405875 0.10000676 94.90010532 950 64 1296 1229968 1593959680
187	676149 106 409 7599 0.100093159998 2.000036439999 4 64 64 256 16384
193	676255 106 265 7608 0.100042199999 2.000042199999 4 64 64 256 16384
194	676361 4387 2204 405184 0.60000676 94.80010532 159 64 1296 204832 265383424
195	680748 4387 2204 405184 0.60000676 94.80010532 159 64 1296 204832 265383424
198	685135 106 257 7600 0.100036439999 2.000036439999 4 64 64 256 16384
204	685241 106 266 7754 0.100042199999 2.000098919998 4 64 64 256 16384
205	685347 1325 7537 401492 2.00000676 94.00010532 48 64 1296 60976 78946048
206	686672 1325 7537 401492 2.00000676 94.00010532 48 64 1296 60976 78946048
209	687997 106 258 7751 0.100036439999 2.000093159998 4 64 64 256 16384
215	688103 106 267 7609 0.100042199999 2.000042199999 4 64 64 256 16384
216	688209 13103 668 405185 0.20000676 94.80010532 475 64 1296 614368 796142080
217	701312 13103 668 405185 0.20000676 94.80010532 475 64 1296 614368 796142080
220	714415 106 259 7601 0.100036439999 2.000036439999 4 64 64 256 16384
226	714521 30083 268 406109 0.100042199999 94.900468119994 953 64 1296 1230160 1593971968
227	744604 26 322 322 0.100049959999 0.100049959999 1 64 64 64 4096
228	744630 26 322 322 0.100049959999 0.100049959999 1 64 64 64 4096
231	744656 30083 260 406090 0.100036439999 94.900363799994 953 64 1296 1230160 1593971968
237	774739 12184 269 405535 0.100042199999 94.800468119994 397 64 1296 277968 345107712
238	786923 54 2331 7664 0.600049959999 2.000049959999 2 64 64 128 8192
239	786977 54 2331 7664 0.600049959999 2.000049959999 2 64 64 128 8192
242	787031 12184 261 405459 0.100036439999 94.800363799994 397 64 1296 277968 345107712
248	799215 15080 270 405753 0.100042199999 94.800610839988 478 64 1296 614560 796154368
249	814295 26 795 795 0.200049959999 0.200049959999 1 64 64 64 4096
250	814321 26 795 795 0.200049959999 0.200049959999 1 64 64 64 4096
253	814347 15080 262 405655 0.100036439999 94.800506519988 478 64 1296 614560 796154368
259	829427 11 55 55 0 0 1 1 1 1 1
261	829438 371941 60 406094 0.00000576 94.900369559994 12539 64 594 2885180 1310662052
262	1201379 371985 73 406096 0.00001352 94.900370519993 12538 64 594 2885795 1311042949
263	1573364 371985 73 406096 0.00001352 94.900370519993 12538 64 594 2885795 1311042949
266	1945349 356415 59 406092 0 94.900363799994 12539 64 594 2885180 1310662052
270	2301764 356415 58 406091 0 94.900363799994 12539 28 576 2615010 1207027058
271	2658179 371986 74 406098 0.00001352 94.900370519993 12538 28 576 2615560 1207378804
274	3030165 20 66 66 0.00000676 0.00000676 1 1 1 1 1