file 2385820 1483459081                                         
version 2
run simple_attack-0-20170103-16:57:57-5004
attr configname simple_attack
attr datetime 20170103-16:57:57
attr experiment simple_attack
attr inifile omnetpp.ini
attr iterationvars ""
attr iterationvars2 $repetition=0
attr measurement ""
attr network Topo
attr processid 5004
attr repetition 0
attr replication #0
attr resultdir results
attr runnumber 0
attr seedset 0

vector 343  Topo.s1.tcp  tcpRcvQueueBytes  ETV
vector 330  Topo.s1.tcp  "advertised window"  ETV
vector 329  Topo.s1.tcp  "receive window"  ETV
vector 332  Topo.s1.tcp  "sent ack"  ETV
vector 273  Topo.s1.networkLayer.arp  sentReq:vector  ETV
attr title  "ARP request sent, vector"
vector 284  Topo.s1.eth[0].encap  encapPk:vector(packetBytes)  ETV
attr interpolationmode  none
attr source  encapPk
attr title  "packets encapsulated, vector(packetBytes)"
vector 280  Topo.s1.eth[0].mac  rxPkFromHL:vector(packetBytes)  ETV
attr interpolationmode  none
attr source  rxPkFromHL
attr title  "packet bytes from higher layer, vector(packetBytes)"
vector 275  Topo.s1.eth[0].mac  txPk:vector(packetBytes)  ETV
attr interpolationmode  none
attr source  txPk
attr title  "packets transmitted, vector(packetBytes)"
vector 293  Topo.controller.eth[0].mac  rxPkOk:vector(packetBytes)  ETV
attr interpolationmode  none
attr source  rxPkOk
attr title  "packets received OK, vector(packetBytes)"
vector 294  Topo.controller.eth[0].mac  passedUpPk:vector(packetBytes)  ETV
attr interpolationmode  none
attr source  packetSentToUpper
attr title  "packets passed to higher layer, vector(packetBytes)"
vector 302  Topo.controller.eth[0].encap  decapPk:vector(packetBytes)  ETV
attr interpolationmode  none
attr source  decapPk
attr title  "packets decapsulated, vector(packetBytes)"
vector 288  Topo.controller.networkLayer.arp  sentReply:vector  ETV
attr title  "ARP replies sent, vector"
vector 301  Topo.controller.eth[0].encap  encapPk:vector(packetBytes)  ETV
attr interpolationmode  none
attr source  encapPk
attr title  "packets encapsulated, vector(packetBytes)"
vector 297  Topo.controller.eth[0].mac  rxPkFromHL:vector(packetBytes)  ETV
attr interpolationmode  none
attr source  rxPkFromHL
attr title  "packet bytes from higher layer, vector(packetBytes)"
vector 292  Topo.controller.eth[0].mac  txPk:vector(packetBytes)  ETV
attr interpolationmode  none
attr source  txPk
attr title  "packets transmitted, vector(packetBytes)"
vector 276  Topo.s1.eth[0].mac  rxPkOk:vector(packetBytes)  ETV
attr interpolationmode  none
attr source  rxPkOk
attr title  "packets received OK, vector(packetBytes)"
vector 277  Topo.s1.eth[0].mac  passedUpPk:vector(packetBytes)  ETV
attr interpolationmode  none
attr source  packetSentToUpper
attr title  "packets passed to higher layer, vector(packetBytes)"
vector 285  Topo.s1.eth[0].encap  decapPk:vector(packetBytes)  ETV
attr interpolationmode  none
attr source  decapPk
attr title  "packets decapsulated, vector(packetBytes)"
vector 309  Topo.controller.tcp  "rcvd seq"  ETV
vector 310  Topo.controller.tcp  "rcvd ack"  ETV
vector 306  Topo.controller.tcp  "advertised window"  ETV
vector 304  Topo.controller.tcp  "send window"  ETV
vector 319  Topo.controller.tcp  tcpRcvQueueBytes  ETV
vector 305  Topo.controller.tcp  "receive window"  ETV
vector 308  Topo.controller.tcp  "sent ack"  ETV
vector 333  Topo.s1.tcp  "rcvd seq"  ETV
vector 334  Topo.s1.tcp  "rcvd ack"  ETV
vector 328  Topo.s1.tcp  "send window"  ETV
vector 311  Topo.controller.tcp  "unacked bytes"  ETV
vector 307  Topo.controller.tcp  "sent seq"  ETV
vector 336  Topo.s1.tcp  "rcvd dupAcks"  ETV
vector 331  Topo.s1.tcp  "sent seq"  ETV
vector 335  Topo.s1.tcp  "unacked bytes"  ETV
vector 323  Topo.controller.tcp  "measured RTT"  ETV
vector 324  Topo.controller.tcp  "smoothed RTT"  ETV
vector 325  Topo.controller.tcp  RTTVAR  ETV
vector 326  Topo.controller.tcp  RTO  ETV
vector 321  Topo.controller.tcp  cwnd  ETV
vector 312  Topo.controller.tcp  "rcvd dupAcks"  ETV
vector 347  Topo.s1.tcp  "measured RTT"  ETV
vector 348  Topo.s1.tcp  "smoothed RTT"  ETV
vector 349  Topo.s1.tcp  RTTVAR  ETV
vector 350  Topo.s1.tcp  RTO  ETV
vector 345  Topo.s1.tcp  cwnd  ETV
vector 1  Topo.client1.udpApp[0]  sentPk:vector(packetBytes)  ETV
attr interpolationmode  none
attr source  sentPk
attr title  "packets sent, vector(packetBytes)"
vector 3  Topo.client1.udp  sentPk:vector(packetBytes)  ETV
attr interpolationmode  none
attr source  sentPk
attr title  "packets sent, vector(packetBytes)"
vector 4  Topo.client1.udp  sentPk:vector(count)  ETV
attr interpolationmode  none
attr source  sentPk
attr title  "packets sent, vector(count)"
vector 11  Topo.client1.networkLayer.arp  sentReq:vector  ETV
attr title  "ARP request sent, vector"
vector 25  Topo.client1.eth[0].encap  encapPk:vector(packetBytes)  ETV
attr interpolationmode  none
attr source  encapPk
attr title  "packets encapsulated, vector(packetBytes)"
vector 21  Topo.client1.eth[0].mac  rxPkFromHL:vector(packetBytes)  ETV
attr interpolationmode  none
attr source  rxPkFromHL
attr title  "packet bytes from higher layer, vector(packetBytes)"
vector 16  Topo.client1.eth[0].mac  txPk:vector(packetBytes)  ETV
attr interpolationmode  none
attr source  txPk
attr title  "packets transmitted, vector(packetBytes)"
vector 197  Topo.s1.etherMAC[0]  rxPkOk:vector(packetBytes)  ETV
attr interpolationmode  none
attr source  rxPkOk
attr title  "packets received OK, vector(packetBytes)"
vector 198  Topo.s1.etherMAC[0]  passedUpPk:vector(packetBytes)  ETV
attr interpolationmode  none
attr source  packetSentToUpper
attr title  "packets passed to higher layer, vector(packetBytes)"
vector 212  Topo.s1.etherMAC[1]  rxPkFromHL:vector(packetBytes)  ETV
attr interpolationmode  none
attr source  rxPkFromHL
attr title  "packet bytes from higher layer, vector(packetBytes)"
vector 223  Topo.s1.etherMAC[2]  rxPkFromHL:vector(packetBytes)  ETV
attr interpolationmode  none
attr source  rxPkFromHL
attr title  "packet bytes from higher layer, vector(packetBytes)"
vector 234  Topo.s1.etherMAC[3]  rxPkFromHL:vector(packetBytes)  ETV
attr interpolationmode  none
attr source  rxPkFromHL
attr title  "packet bytes from higher layer, vector(packetBytes)"
vector 245  Topo.s1.etherMAC[4]  rxPkFromHL:vector(packetBytes)  ETV
attr interpolationmode  none
attr source  rxPkFromHL
attr title  "packet bytes from higher layer, vector(packetBytes)"
vector 256  Topo.s1.etherMAC[5]  rxPkFromHL:vector(packetBytes)  ETV
attr interpolationmode  none
attr source  rxPkFromHL
attr title  "packet bytes from higher layer, vector(packetBytes)"
vector 267  Topo.s1.etherMAC[6]  rxPkFromHL:vector(packetBytes)  ETV
attr interpolationmode  none
attr source  rxPkFromHL
attr title  "packet bytes from higher layer, vector(packetBytes)"
vector 207  Topo.s1.etherMAC[1]  txPk:vector(packetBytes)  ETV
attr interpolationmode  none
attr source  txPk
attr title  "packets transmitted, vector(packetBytes)"
vector 218  Topo.s1.etherMAC[2]  txPk:vector(packetBytes)  ETV
attr interpolationmode  none
attr source  txPk
attr title  "packets transmitted, vector(packetBytes)"
vector 229  Topo.s1.etherMAC[3]  txPk:vector(packetBytes)  ETV
attr interpolationmode  none
attr source  txPk
attr title  "packets transmitted, vector(packetBytes)"
vector 240  Topo.s1.etherMAC[4]  txPk:vector(packetBytes)  ETV
attr interpolationmode  none
attr source  txPk
attr title  "packets transmitted, vector(packetBytes)"
vector 251  Topo.s1.etherMAC[5]  txPk:vector(packetBytes)  ETV
attr interpolationmode  none
attr source  txPk
attr title  "packets transmitted, vector(packetBytes)"
vector 262  Topo.s1.etherMAC[6]  txPk:vector(packetBytes)  ETV
attr interpolationmode  none
attr source  txPk
attr title  "packets transmitted, vector(packetBytes)"
vector 45  Topo.client2.eth[0].mac  rxPkOk:vector(packetBytes)  ETV
attr interpolationmode  none
attr source  rxPkOk
attr title  "packets received OK, vector(packetBytes)"
vector 46  Topo.client2.eth[0].mac  passedUpPk:vector(packetBytes)  ETV
attr interpolationmode  none
attr source  packetSentToUpper
attr title  "packets passed to higher layer, vector(packetBytes)"
vector 73  Topo.client3.eth[0].mac  rxPkOk:vector(packetBytes)  ETV
attr interpolationmode  none
attr source  rxPkOk
attr title  "packets received OK, vector(packetBytes)"
vector 74  Topo.client3.eth[0].mac  passedUpPk:vector(packetBytes)  ETV
attr interpolationmode  none
attr source  packetSentToUpper
attr title  "packets passed to higher layer, vector(packetBytes)"
vector 101  Topo.client4.eth[0].mac  rxPkOk:vector(packetBytes)  ETV
attr interpolationmode  none
attr source  rxPkOk
attr title  "packets received OK, vector(packetBytes)"
vector 102  Topo.client4.eth[0].mac  passedUpPk:vector(packetBytes)  ETV
attr interpolationmode  none
attr source  packetSentToUpper
attr title  "packets passed to higher layer, vector(packetBytes)"
vector 129  Topo.server1.eth[0].mac  rxPkOk:vector(packetBytes)  ETV
attr interpolationmode  none
attr source  rxPkOk
attr title  "packets received OK, vector(packetBytes)"
vector 130  Topo.server1.eth[0].mac  passedUpPk:vector(packetBytes)  ETV
attr interpolationmode  none
attr source  packetSentToUpper
attr title  "packets passed to higher layer, vector(packetBytes)"
vector 157  Topo.server2.eth[0].mac  rxPkOk:vector(packetBytes)  ETV
attr interpolationmode  none
attr source  rxPkOk
attr title  "packets received OK, vector(packetBytes)"
vector 158  Topo.server2.eth[0].mac  passedUpPk:vector(packetBytes)  ETV
attr interpolationmode  none
attr source  packetSentToUpper
attr title  "packets passed to higher layer, vector(packetBytes)"
vector 185  Topo.server3.eth[0].mac  rxPkOk:vector(packetBytes)  ETV
attr interpolationmode  none
attr source  rxPkOk
attr title  "packets received OK, vector(packetBytes)"
vector 186  Topo.server3.eth[0].mac  passedUpPk:vector(packetBytes)  ETV
attr interpolationmode  none
attr source  packetSentToUpper
attr title  "packets passed to higher layer, vector(packetBytes)"
vector 54  Topo.client2.eth[0].encap  decapPk:vector(packetBytes)  ETV
attr interpolationmode  none
attr source  decapPk
attr title  "packets decapsulated, vector(packetBytes)"
vector 82  Topo.client3.eth[0].encap  decapPk:vector(packetBytes)  ETV
attr interpolationmode  none
attr source  decapPk
attr title  "packets decapsulated, vector(packetBytes)"
vector 110  Topo.client4.eth[0].encap  decapPk:vector(packetBytes)  ETV
attr interpolationmode  none
attr source  decapPk
attr title  "packets decapsulated, vector(packetBytes)"
vector 138  Topo.server1.eth[0].encap  decapPk:vector(packetBytes)  ETV
attr interpolationmode  none
attr source  decapPk
attr title  "packets decapsulated, vector(packetBytes)"
vector 166  Topo.server2.eth[0].encap  decapPk:vector(packetBytes)  ETV
attr interpolationmode  none
attr source  decapPk
attr title  "packets decapsulated, vector(packetBytes)"
vector 194  Topo.server3.eth[0].encap  decapPk:vector(packetBytes)  ETV
attr interpolationmode  none
attr source  decapPk
attr title  "packets decapsulated, vector(packetBytes)"
vector 124  Topo.server1.networkLayer.arp  sentReply:vector  ETV
attr title  "ARP replies sent, vector"
vector 137  Topo.server1.eth[0].encap  encapPk:vector(packetBytes)  ETV
attr interpolationmode  none
attr source  encapPk
attr title  "packets encapsulated, vector(packetBytes)"
vector 133  Topo.server1.eth[0].mac  rxPkFromHL:vector(packetBytes)  ETV
attr interpolationmode  none
attr source  rxPkFromHL
attr title  "packet bytes from higher layer, vector(packetBytes)"
vector 128  Topo.server1.eth[0].mac  txPk:vector(packetBytes)  ETV
attr interpolationmode  none
attr source  txPk
attr title  "packets transmitted, vector(packetBytes)"
vector 241  Topo.s1.etherMAC[4]  rxPkOk:vector(packetBytes)  ETV
attr interpolationmode  none
attr source  rxPkOk
attr title  "packets received OK, vector(packetBytes)"
vector 242  Topo.s1.etherMAC[4]  passedUpPk:vector(packetBytes)  ETV
attr interpolationmode  none
attr source  packetSentToUpper
attr title  "packets passed to higher layer, vector(packetBytes)"
vector 201  Topo.s1.etherMAC[0]  rxPkFromHL:vector(packetBytes)  ETV
attr interpolationmode  none
attr source  rxPkFromHL
attr title  "packet bytes from higher layer, vector(packetBytes)"
vector 196  Topo.s1.etherMAC[0]  txPk:vector(packetBytes)  ETV
attr interpolationmode  none
attr source  txPk
attr title  "packets transmitted, vector(packetBytes)"
vector 17  Topo.client1.eth[0].mac  rxPkOk:vector(packetBytes)  ETV
attr interpolationmode  none
attr source  rxPkOk
attr title  "packets received OK, vector(packetBytes)"
vector 18  Topo.client1.eth[0].mac  passedUpPk:vector(packetBytes)  ETV
attr interpolationmode  none
attr source  packetSentToUpper
attr title  "packets passed to higher layer, vector(packetBytes)"
vector 26  Topo.client1.eth[0].encap  decapPk:vector(packetBytes)  ETV
attr interpolationmode  none
attr source  decapPk
attr title  "packets decapsulated, vector(packetBytes)"
vector 117  Topo.server1.udp  rcvdPk:vector(packetBytes)  ETV
attr interpolationmode  none
attr source  rcvdPk
attr title  "packets received, vector(packetBytes)"
vector 122  Topo.server1.udp  rcvdPkLifetime:vector  ETV
attr interpolationmode  none
attr source  messageAge(rcvdPk)
attr title  "received packet lifetime, vector"
attr unit  s
vector 121  Topo.server1.udp  delay:vector  ETV
attr interpolationmode  none
attr source  delay
attr title  "delay, vector"
vector 118  Topo.server1.udp  passedUpPk:vector(count)  ETV
attr interpolationmode  none
attr title  "packets passed up, vector(count)"
vector 112  Topo.server1.udpApp[0]  rcvdPk:vector(packetBytes)  ETV
attr interpolationmode  none
attr source  rcvdPk
attr title  "packets received, vector(packetBytes)"
vector 113  Topo.server1.udpApp[0]  rcvdPk:vector(count)  ETV
attr interpolationmode  none
attr source  rcvdPk
attr title  "packets received, vector(count)"
vector 85  Topo.client4.udpApp[0]  sentPk:vector(packetBytes)  ETV
attr interpolationmode  none
attr source  sentPk
attr title  "packets sent, vector(packetBytes)"
vector 87  Topo.client4.udp  sentPk:vector(packetBytes)  ETV
attr interpolationmode  none
attr source  sentPk
attr title  "packets sent, vector(packetBytes)"
vector 88  Topo.client4.udp  sentPk:vector(count)  ETV
attr interpolationmode  none
attr source  sentPk
attr title  "packets sent, vector(count)"
vector 95  Topo.client4.networkLayer.arp  sentReq:vector  ETV
attr title  "ARP request sent, vector"
vector 109  Topo.client4.eth[0].encap  encapPk:vector(packetBytes)  ETV
attr interpolationmode  none
attr source  encapPk
attr title  "packets encapsulated, vector(packetBytes)"
vector 105  Topo.client4.eth[0].mac  rxPkFromHL:vector(packetBytes)  ETV
attr interpolationmode  none
attr source  rxPkFromHL
attr title  "packet bytes from higher layer, vector(packetBytes)"
vector 100  Topo.client4.eth[0].mac  txPk:vector(packetBytes)  ETV
attr interpolationmode  none
attr source  txPk
attr title  "packets transmitted, vector(packetBytes)"
vector 230  Topo.s1.etherMAC[3]  rxPkOk:vector(packetBytes)  ETV
attr interpolationmode  none
attr source  rxPkOk
attr title  "packets received OK, vector(packetBytes)"
vector 231  Topo.s1.etherMAC[3]  passedUpPk:vector(packetBytes)  ETV
attr interpolationmode  none
attr source  packetSentToUpper
attr title  "packets passed to higher layer, vector(packetBytes)"
vector 180  Topo.server3.networkLayer.arp  sentReply:vector  ETV
attr title  "ARP replies sent, vector"
vector 193  Topo.server3.eth[0].encap  encapPk:vector(packetBytes)  ETV
attr interpolationmode  none
attr source  encapPk
attr title  "packets encapsulated, vector(packetBytes)"
vector 189  Topo.server3.eth[0].mac  rxPkFromHL:vector(packetBytes)  ETV
attr interpolationmode  none
attr source  rxPkFromHL
attr title  "packet bytes from higher layer, vector(packetBytes)"
vector 184  Topo.server3.eth[0].mac  txPk:vector(packetBytes)  ETV
attr interpolationmode  none
attr source  txPk
attr title  "packets transmitted, vector(packetBytes)"
vector 263  Topo.s1.etherMAC[6]  rxPkOk:vector(packetBytes)  ETV
attr interpolationmode  none
attr source  rxPkOk
attr title  "packets received OK, vector(packetBytes)"
vector 264  Topo.s1.etherMAC[6]  passedUpPk:vector(packetBytes)  ETV
attr interpolationmode  none
attr source  packetSentToUpper
attr title  "packets passed to higher layer, vector(packetBytes)"
vector 173  Topo.server3.udp  rcvdPk:vector(packetBytes)  ETV
attr interpolationmode  none
attr source  rcvdPk
attr title  "packets received, vector(packetBytes)"
vector 178  Topo.server3.udp  rcvdPkLifetime:vector  ETV
attr interpolationmode  none
attr source  messageAge(rcvdPk)
attr title  "received packet lifetime, vector"
attr unit  s
vector 177  Topo.server3.udp  delay:vector  ETV
attr interpolationmode  none
attr source  delay
attr title  "delay, vector"
vector 174  Topo.server3.udp  passedUpPk:vector(count)  ETV
attr interpolationmode  none
attr title  "packets passed up, vector(count)"
vector 168  Topo.server3.udpApp[0]  rcvdPk:vector(packetBytes)  ETV
attr interpolationmode  none
attr source  rcvdPk
attr title  "packets received, vector(packetBytes)"
vector 169  Topo.server3.udpApp[0]  rcvdPk:vector(count)  ETV
attr interpolationmode  none
attr source  rcvdPk
attr title  "packets received, vector(count)"
vector 29  Topo.client2.udpApp[0]  sentPk:vector(packetBytes)  ETV
attr interpolationmode  none
attr source  sentPk
attr title  "packets sent, vector(packetBytes)"
vector 31  Topo.client2.udp  sentPk:vector(packetBytes)  ETV
attr interpolationmode  none
attr source  sentPk
attr title  "packets sent, vector(packetBytes)"
vector 32  Topo.client2.udp  sentPk:vector(count)  ETV
attr interpolationmode  none
attr source  sentPk
attr title  "packets sent, vector(count)"
vector 39  Topo.client2.networkLayer.arp  sentReq:vector  ETV
attr title  "ARP request sent, vector"
vector 53  Topo.client2.eth[0].encap  encapPk:vector(packetBytes)  ETV
attr interpolationmode  none
attr source  encapPk
attr title  "packets encapsulated, vector(packetBytes)"
vector 49  Topo.client2.eth[0].mac  rxPkFromHL:vector(packetBytes)  ETV
attr interpolationmode  none
attr source  rxPkFromHL
attr title  "packet bytes from higher layer, vector(packetBytes)"
vector 44  Topo.client2.eth[0].mac  txPk:vector(packetBytes)  ETV
attr interpolationmode  none
attr source  txPk
attr title  "packets transmitted, vector(packetBytes)"
vector 208  Topo.s1.etherMAC[1]  rxPkOk:vector(packetBytes)  ETV
attr interpolationmode  none
attr source  rxPkOk
attr title  "packets received OK, vector(packetBytes)"
vector 209  Topo.s1.etherMAC[1]  passedUpPk:vector(packetBytes)  ETV
attr interpolationmode  none
attr source  packetSentToUpper
attr title  "packets passed to higher layer, vector(packetBytes)"
vector 152  Topo.server2.networkLayer.arp  sentReply:vector  ETV
attr title  "ARP replies sent, vector"
vector 165  Topo.server2.eth[0].encap  encapPk:vector(packetBytes)  ETV
attr interpolationmode  none
attr source  encapPk
attr title  "packets encapsulated, vector(packetBytes)"
vector 161  Topo.server2.eth[0].mac  rxPkFromHL:vector(packetBytes)  ETV
attr interpolationmode  none
attr source  rxPkFromHL
attr title  "packet bytes from higher layer, vector(packetBytes)"
vector 156  Topo.server2.eth[0].mac  txPk:vector(packetBytes)  ETV
attr interpolationmode  none
attr source  txPk
attr title  "packets transmitted, vector(packetBytes)"
vector 252  Topo.s1.etherMAC[5]  rxPkOk:vector(packetBytes)  ETV
attr interpolationmode  none
attr source  rxPkOk
attr title  "packets received OK, vector(packetBytes)"
vector 253  Topo.s1.etherMAC[5]  passedUpPk:vector(packetBytes)  ETV
attr interpolationmode  none
attr source  packetSentToUpper
attr title  "packets passed to higher layer, vector(packetBytes)"
vector 145  Topo.server2.udp  rcvdPk:vector(packetBytes)  ETV
attr interpolationmode  none
attr source  rcvdPk
attr title  "packets received, vector(packetBytes)"
vector 150  Topo.server2.udp  rcvdPkLifetime:vector  ETV
attr interpolationmode  none
attr source  messageAge(rcvdPk)
attr title  "received packet lifetime, vector"
attr unit  s
vector 149  Topo.server2.udp  delay:vector  ETV
attr interpolationmode  none
attr source  delay
attr title  "delay, vector"
vector 146  Topo.server2.udp  passedUpPk:vector(count)  ETV
attr interpolationmode  none
attr title  "packets passed up, vector(count)"
vector 140  Topo.server2.udpApp[0]  rcvdPk:vector(packetBytes)  ETV
attr interpolationmode  none
attr source  rcvdPk
attr title  "packets received, vector(packetBytes)"
vector 141  Topo.server2.udpApp[0]  rcvdPk:vector(count)  ETV
attr interpolationmode  none
attr source  rcvdPk
attr title  "packets received, vector(count)"
vector 170  Topo.server3.udpApp[0]  rcvdAppPkt:vector  ETV
attr interpolationmode  none
attr source  rcvdAppPkt
attr title  "packets received during sec, vector"
vector 114  Topo.server1.udpApp[0]  rcvdAppPkt:vector  ETV
attr interpolationmode  none
attr source  rcvdAppPkt
attr title  "packets received during sec, vector"
vector 142  Topo.server2.udpApp[0]  rcvdAppPkt:vector  ETV
attr interpolationmode  none
attr source  rcvdAppPkt
attr title  "packets received during sec, vector"
vector 57  Topo.client3.udpApp[0]  sentPk:vector(packetBytes)  ETV
attr interpolationmode  none
attr source  sentPk
attr title  "packets sent, vector(packetBytes)"
vector 59  Topo.client3.udp  sentPk:vector(packetBytes)  ETV
attr interpolationmode  none
attr source  sentPk
attr title  "packets sent, vector(packetBytes)"
vector 60  Topo.client3.udp  sentPk:vector(count)  ETV
attr interpolationmode  none
attr source  sentPk
attr title  "packets sent, vector(count)"
vector 67  Topo.client3.networkLayer.arp  sentReq:vector  ETV
attr title  "ARP request sent, vector"
vector 81  Topo.client3.eth[0].encap  encapPk:vector(packetBytes)  ETV
attr interpolationmode  none
attr source  encapPk
attr title  "packets encapsulated, vector(packetBytes)"
vector 77  Topo.client3.eth[0].mac  rxPkFromHL:vector(packetBytes)  ETV
attr interpolationmode  none
attr source  rxPkFromHL
attr title  "packet bytes from higher layer, vector(packetBytes)"
vector 72  Topo.client3.eth[0].mac  txPk:vector(packetBytes)  ETV
attr interpolationmode  none
attr source  txPk
attr title  "packets transmitted, vector(packetBytes)"
vector 219  Topo.s1.etherMAC[2]  rxPkOk:vector(packetBytes)  ETV
attr interpolationmode  none
attr source  rxPkOk
attr title  "packets received OK, vector(packetBytes)"
vector 220  Topo.s1.etherMAC[2]  passedUpPk:vector(packetBytes)  ETV
attr interpolationmode  none
attr source  packetSentToUpper
attr title  "packets passed to higher layer, vector(packetBytes)"
1	22622 16624 181 92139 0.1 94.9 949 1250 1250 1186250 1482812500
3	39246 16624 185 92141 0.1 94.9 949 1258 1258 1193842 1501853236
4	55870 15567 185 92141 0.1 94.9 949 1 949 450775 285340575
11	71437 13 187 187 0.1 0.1 1 1 1 1 1
16	71450 24429 193 92148 0.10000576 94.90010432 950 64 1296 1229968 1593959680
17	95879 102 416 2473 0.100099919998 2.000043199999 4 64 64 256 16384
18	95981 102 416 2473 0.100099919998 2.000043199999 4 64 64 256 16384
21	96083 17598 191 92146 0.1 94.9 950 64 1296 1229968 1593959680
25	113681 17598 190 92145 0.1 94.9 950 28 1278 1212850 1549987300
26	131279 102 418 2480 0.100099919998 2.000043199999 4 28 28 112 3136
29	131381 2896 1249 91837 0.6 94.8 158 1250 1250 197500 246875000
31	134277 2896 1257 91843 0.6 94.8 158 1258 1258 198764 250045112
32	137173 2630 1257 91843 0.6 94.8 158 1 158 12561 1327279
39	139803 14 1263 1263 0.6 0.6 1 1 1 1 1
44	139817 4090 1279 91899 0.60000576 94.80010432 159 64 1296 204832 265383424
45	143907 102 279 2474 0.100043199999 2.000043199999 4 64 64 256 16384
46	144009 102 279 2474 0.100043199999 2.000043199999 4 64 64 256 16384
49	144111 2922 1275 91858 0.6 94.8 159 64 1296 204832 265383424
53	147033 2922 1272 91855 0.6 94.8 159 28 1278 201952 258059656
54	149955 102 286 2481 0.100043199999 2.000043199999 4 28 28 112 3136
57	150057 787 2357 90967 2 94 47 1250 1250 58750 73437500
59	150844 787 2365 90973 2 94 47 1258 1258 59126 74380508
60	151631 684 2365 90973 2 94 47 1 47 1128 35720
67	152315 12 2371 2371 2 2 1 1 1 1 1
72	152327 1236 2387 91029 2.00000576 94.00010432 48 64 1296 60976 78946048
73	153563 102 280 2610 0.100043199999 2.000099919998 4 64 64 256 16384
74	153665 102 280 2610 0.100043199999 2.000099919998 4 64 64 256 16384
77	153767 813 2383 90988 2 94 48 64 1296 60976 78946048
81	154580 813 2380 90985 2 94 48 28 1278 60094 76765132
82	155393 102 287 2612 0.100043199999 2.000099919998 4 28 28 112 3136
85	155495 8701 645 92167 0.2 95 475 1250 1250 593750 742187500
87	164196 8684 651 91844 0.2 94.8 474 1258 1258 596292 750135336
88	172880 8102 651 91844 0.2 94.8 474 1 474 112575 35611225
95	180982 13 655 655 0.2 0.2 1 1 1 1 1
100	180995 12690 666 91900 0.20000576 94.80010432 475 64 1296 614368 796142080
101	193685 106 281 2475 0.100043199999 2.000043199999 4 64 64 256 16384
102	193791 106 281 2475 0.100043199999 2.000043199999 4 64 64 256 16384
105	193897 9184 663 91859 0.2 94.8 475 64 1296 614368 796142080
109	203081 9184 661 91856 0.2 94.8 475 28 1278 605800 774177400
110	212265 106 288 2482 0.100043199999 2.000043199999 4 28 28 112 3136
112	212371 25362 644 92166 0.100569039992 94.90021064 949 1250 1250 1186250 1482812500
113	237733 24305 644 92166 0.100569039992 94.90021064 949 1 949 450775 285340575
114	262038 2325 1936 91208 1.00021064 94.00021064 94 10 10 940 9400
117	264363 25362 642 92164 0.100569039992 94.90021064 949 1258 1258 1193842 1501853236
118	289725 24305 642 92164 0.100569039992 94.90021064 949 1 949 450775 285340575
121	314030 31064 642 92164 0.100569039992 94.90021064 949 0.00021064 0.000569039992 0.200514239986 4.2561521572467e-05
122	345094 31064 642 92164 0.100569039992 94.90021064 949 0.00021064 0.000569039992 0.200514239986 4.2561521572467e-05
124	376158 25 310 310 0.100043199999 0.100043199999 1 1 1 1 1
128	376183 26 320 320 0.100048959999 0.100048959999 1 64 64 64 4096
129	376209 25468 282 92159 0.100043199999 94.90021064 953 64 1296 1230160 1593971968
130	401677 25468 282 92159 0.100043199999 94.90021064 953 64 1296 1230160 1593971968
133	427145 26 318 318 0.100043199999 0.100043199999 1 64 64 64 4096
137	427171 26 317 317 0.100043199999 0.100043199999 1 28 28 28 784
138	427197 25468 289 92160 0.100043199999 94.90021064 953 28 1278 1212934 1549989652
140	452665 5563 1768 92076 0.600569039992 94.80021064 205 1250 1250 256250 320312500
141	458228 5250 1768 92076 0.600569039992 94.80021064 205 1 205 21115 2892755
142	463478 2243 2046 91206 1.20021064 94.00021064 94 1 3 203 481
145	465721 5563 1766 92070 0.600569039992 94.80021064 205 1258 1258 257890 324425620
146	471284 5250 1766 92070 0.600569039992 94.80021064 205 1 205 21115 2892755
149	476534 6877 1766 92070 0.600569039992 94.80021064 205 0.00021064 0.000569039992 0.046813919775 1.1455147251051e-05
150	483411 6877 1766 92070 0.600569039992 94.80021064 205 0.00021064 0.000569039992 0.046813919775 1.1455147251051e-05
152	490288 52 1397 2505 0.600043199999 2.000043199999 2 1 1 2 2
156	490340 54 1406 2514 0.600048959999 2.000048959999 2 64 64 128 8192
157	490394 11486 283 92135 0.100043199999 94.800363799948 397 64 1296 509584 660105472
158	501880 11486 283 92135 0.100043199999 94.800363799948 397 64 1296 509584 660105472
161	513366 54 1404 2512 0.600043199999 2.000043199999 2 64 64 128 8192
165	513420 54 1403 2511 0.600043199999 2.000043199999 2 28 28 56 1568
166	513474 11486 290 92136 0.100043199999 94.800363799948 397 28 1278 502366 641883748
168	524960 12681 1136 92077 0.200569039992 94.80021064 474 1250 1250 592500 740625000
169	537641 12099 1136 92077 0.200569039992 94.80021064 474 1 474 112575 35611225
170	549740 2231 1935 91207 1.00021064 94.00021064 94 5 5 470 2350
173	551971 12681 1134 92071 0.200569039992 94.80021064 474 1258 1258 596292 750135336
174	564652 12099 1134 92071 0.200569039992 94.80021064 474 1 474 112575 35611225
177	576751 15541 1134 92071 0.200569039992 94.80021064 474 0.00021064 0.000569039992 0.101051999895 2.1910533521879e-05
178	592292 15541 1134 92071 0.200569039992 94.80021064 474 0.00021064 0.000569039992 0.101051999895 2.1910533521879e-05
180	607833 25 785 785 0.200043199999 0.200043199999 1 1 1 1 1
184	607858 26 793 793 0.200048959999 0.200048959999 1 64 64 64 4096
185	607884 12787 284 92056 0.100043199999 94.80021064 478 64 1296 614560 796154368
186	620671 12787 284 92056 0.100043199999 94.80021064 478 64 1296 614560 796154368
189	633458 26 791 791 0.200043199999 0.200043199999 1 64 64 64 4096
193	633484 26 790 790 0.200043199999 0.200043199999 1 28 28 28 784
194	633510 12787 291 92059 0.100043199999 94.80021064 478 28 1278 605884 774179752
196	646297 106 412 2459 0.100098919998 2.000042199999 4 64 64 256 16384
197	646403 25380 195 92150 0.10000676 94.90010532 950 64 1296 1229968 1593959680
198	671783 25380 195 92150 0.10000676 94.90010532 950 64 1296 1229968 1593959680
201	697163 106 409 2451 0.100093159998 2.000036439999 4 64 64 256 16384
207	697269 106 265 2460 0.100042199999 2.000042199999 4 64 64 256 16384
208	697375 4249 1281 91912 0.60000676 94.80010532 159 64 1296 204832 265383424
209	701624 4249 1281 91912 0.60000676 94.80010532 159 64 1296 204832 265383424
212	705873 106 257 2452 0.100036439999 2.000036439999 4 64 64 256 16384
218	705979 106 266 2606 0.100042199999 2.000098919998 4 64 64 256 16384
219	706085 1284 2389 91042 2.00000676 94.00010532 48 64 1296 60976 78946048
220	707369 1284 2389 91042 2.00000676 94.00010532 48 64 1296 60976 78946048
223	708653 106 258 2603 0.100036439999 2.000093159998 4 64 64 256 16384
229	708759 106 267 2461 0.100042199999 2.000042199999 4 64 64 256 16384
230	708865 12690 668 91913 0.20000676 94.80010532 475 64 1296 614368 796142080
231	721555 12690 668 91913 0.20000676 94.80010532 475 64 1296 614368 796142080
234	734245 106 259 2453 0.100036439999 2.000036439999 4 64 64 256 16384