file 659940 1482930364                                          
version 2
run simple_attack-0-20161228-14:05:46-9315
attr configname simple_attack
attr datetime 20161228-14:05:46
attr experiment simple_attack
attr inifile omnetpp.ini
attr iterationvars ""
attr iterationvars2 $repetition=0
attr measurement ""
attr network Topo
attr processid 9315
attr repetition 0
attr replication #0
attr resultdir results
attr runnumber 0
attr seedset 0

vector 343  Topo.s1.tcp  tcpRcvQueueBytes  ETV
vector 330  Topo.s1.tcp  "advertised window"  ETV
vector 329  Topo.s1.tcp  "receive window"  ETV
vector 332  Topo.s1.tcp  "sent ack"  ETV
vector 273  Topo.s1.networkLayer.arp  sentReq:vector  ETV
attr title  "ARP request sent, vector"
vector 284  Topo.s1.eth[0].encap  encapPk:vector(packetBytes)  ETV
attr interpolationmode  none
attr source  encapPk
attr title  "packets encapsulated, vector(packetBytes)"
vector 280  Topo.s1.eth[0].mac  rxPkFromHL:vector(packetBytes)  ETV
attr interpolationmode  none
attr source  rxPkFromHL
attr title  "packet bytes from higher layer, vector(packetBytes)"
vector 275  Topo.s1.eth[0].mac  txPk:vector(packetBytes)  ETV
attr interpolationmode  none
attr source  txPk
attr title  "packets transmitted, vector(packetBytes)"
vector 293  Topo.controller.eth[0].mac  rxPkOk:vector(packetBytes)  ETV
attr interpolationmode  none
attr source  rxPkOk
attr title  "packets received OK, vector(packetBytes)"
vector 294  Topo.controller.eth[0].mac  passedUpPk:vector(packetBytes)  ETV
attr interpolationmode  none
attr source  packetSentToUpper
attr title  "packets passed to higher layer, vector(packetBytes)"
vector 302  Topo.controller.eth[0].encap  decapPk:vector(packetBytes)  ETV
attr interpolationmode  none
attr source  decapPk
attr title  "packets decapsulated, vector(packetBytes)"
vector 288  Topo.controller.networkLayer.arp  sentReply:vector  ETV
attr title  "ARP replies sent, vector"
vector 301  Topo.controller.eth[0].encap  encapPk:vector(packetBytes)  ETV
attr interpolationmode  none
attr source  encapPk
attr title  "packets encapsulated, vector(packetBytes)"
vector 297  Topo.controller.eth[0].mac  rxPkFromHL:vector(packetBytes)  ETV
attr interpolationmode  none
attr source  rxPkFromHL
attr title  "packet bytes from higher layer, vector(packetBytes)"
vector 292  Topo.controller.eth[0].mac  txPk:vector(packetBytes)  ETV
attr interpolationmode  none
attr source  txPk
attr title  "packets transmitted, vector(packetBytes)"
vector 276  Topo.s1.eth[0].mac  rxPkOk:vector(packetBytes)  ETV
attr interpolationmode  none
attr source  rxPkOk
attr title  "packets received OK, vector(packetBytes)"
vector 277  Topo.s1.eth[0].mac  passedUpPk:vector(packetBytes)  ETV
attr interpolationmode  none
attr source  packetSentToUpper
attr title  "packets passed to higher layer, vector(packetBytes)"
vector 285  Topo.s1.eth[0].encap  decapPk:vector(packetBytes)  ETV
attr interpolationmode  none
attr source  decapPk
attr title  "packets decapsulated, vector(packetBytes)"
vector 309  Topo.controller.tcp  "rcvd seq"  ETV
vector 310  Topo.controller.tcp  "rcvd ack"  ETV
vector 306  Topo.controller.tcp  "advertised window"  ETV
vector 304  Topo.controller.tcp  "send window"  ETV
vector 319  Topo.controller.tcp  tcpRcvQueueBytes  ETV
vector 305  Topo.controller.tcp  "receive window"  ETV
vector 308  Topo.controller.tcp  "sent ack"  ETV
vector 333  Topo.s1.tcp  "rcvd seq"  ETV
vector 334  Topo.s1.tcp  "rcvd ack"  ETV
vector 328  Topo.s1.tcp  "send window"  ETV
vector 311  Topo.controller.tcp  "unacked bytes"  ETV
vector 307  Topo.controller.tcp  "sent seq"  ETV
vector 336  Topo.s1.tcp  "rcvd dupAcks"  ETV
vector 331  Topo.s1.tcp  "sent seq"  ETV
vector 335  Topo.s1.tcp  "unacked bytes"  ETV
vector 323  Topo.controller.tcp  "measured RTT"  ETV
vector 324  Topo.controller.tcp  "smoothed RTT"  ETV
vector 325  Topo.controller.tcp  RTTVAR  ETV
vector 326  Topo.controller.tcp  RTO  ETV
vector 321  Topo.controller.tcp  cwnd  ETV
vector 312  Topo.controller.tcp  "rcvd dupAcks"  ETV
vector 347  Topo.s1.tcp  "measured RTT"  ETV
vector 348  Topo.s1.tcp  "smoothed RTT"  ETV
vector 349  Topo.s1.tcp  RTTVAR  ETV
vector 350  Topo.s1.tcp  RTO  ETV
vector 345  Topo.s1.tcp  cwnd  ETV
vector 1  Topo.client1.udpApp[0]  sentPk:vector(packetBytes)  ETV
attr interpolationmode  none
attr source  sentPk
attr title  "packets sent, vector(packetBytes)"
vector 3  Topo.client1.udp  sentPk:vector(packetBytes)  ETV
attr interpolationmode  none
attr source  sentPk
attr title  "packets sent, vector(packetBytes)"
vector 4  Topo.client1.udp  sentPk:vector(count)  ETV
attr interpolationmode  none
attr source  sentPk
attr title  "packets sent, vector(count)"
vector 11  Topo.client1.networkLayer.arp  sentReq:vector  ETV
attr title  "ARP request sent, vector"
vector 25  Topo.client1.eth[0].encap  encapPk:vector(packetBytes)  ETV
attr interpolationmode  none
attr source  encapPk
attr title  "packets encapsulated, vector(packetBytes)"
vector 21  Topo.client1.eth[0].mac  rxPkFromHL:vector(packetBytes)  ETV
attr interpolationmode  none
attr source  rxPkFromHL
attr title  "packet bytes from higher layer, vector(packetBytes)"
vector 16  Topo.client1.eth[0].mac  txPk:vector(packetBytes)  ETV
attr interpolationmode  none
attr source  txPk
attr title  "packets transmitted, vector(packetBytes)"
vector 197  Topo.s1.etherMAC[0]  rxPkOk:vector(packetBytes)  ETV
attr interpolationmode  none
attr source  rxPkOk
attr title  "packets received OK, vector(packetBytes)"
vector 198  Topo.s1.etherMAC[0]  passedUpPk:vector(packetBytes)  ETV
attr interpolationmode  none
attr source  packetSentToUpper
attr title  "packets passed to higher layer, vector(packetBytes)"
vector 212  Topo.s1.etherMAC[1]  rxPkFromHL:vector(packetBytes)  ETV
attr interpolationmode  none
attr source  rxPkFromHL
attr title  "packet bytes from higher layer, vector(packetBytes)"
vector 223  Topo.s1.etherMAC[2]  rxPkFromHL:vector(packetBytes)  ETV
attr interpolationmode  none
attr source  rxPkFromHL
attr title  "packet bytes from higher layer, vector(packetBytes)"
vector 234  Topo.s1.etherMAC[3]  rxPkFromHL:vector(packetBytes)  ETV
attr interpolationmode  none
attr source  rxPkFromHL
attr title  "packet bytes from higher layer, vector(packetBytes)"
vector 245  Topo.s1.etherMAC[4]  rxPkFromHL:vector(packetBytes)  ETV
attr interpolationmode  none
attr source  rxPkFromHL
attr title  "packet bytes from higher layer, vector(packetBytes)"
vector 256  Topo.s1.etherMAC[5]  rxPkFromHL:vector(packetBytes)  ETV
attr interpolationmode  none
attr source  rxPkFromHL
attr title  "packet bytes from higher layer, vector(packetBytes)"
vector 267  Topo.s1.etherMAC[6]  rxPkFromHL:vector(packetBytes)  ETV
attr interpolationmode  none
attr source  rxPkFromHL
attr title  "packet bytes from higher layer, vector(packetBytes)"
vector 207  Topo.s1.etherMAC[1]  txPk:vector(packetBytes)  ETV
attr interpolationmode  none
attr source  txPk
attr title  "packets transmitted, vector(packetBytes)"
vector 218  Topo.s1.etherMAC[2]  txPk:vector(packetBytes)  ETV
attr interpolationmode  none
attr source  txPk
attr title  "packets transmitted, vector(packetBytes)"
vector 229  Topo.s1.etherMAC[3]  txPk:vector(packetBytes)  ETV
attr interpolationmode  none
attr source  txPk
attr title  "packets transmitted, vector(packetBytes)"
vector 240  Topo.s1.etherMAC[4]  txPk:vector(packetBytes)  ETV
attr interpolationmode  none
attr source  txPk
attr title  "packets transmitted, vector(packetBytes)"
vector 251  Topo.s1.etherMAC[5]  txPk:vector(packetBytes)  ETV
attr interpolationmode  none
attr source  txPk
attr title  "packets transmitted, vector(packetBytes)"
vector 262  Topo.s1.etherMAC[6]  txPk:vector(packetBytes)  ETV
attr interpolationmode  none
attr source  txPk
attr title  "packets transmitted, vector(packetBytes)"
vector 45  Topo.client2.eth[0].mac  rxPkOk:vector(packetBytes)  ETV
attr interpolationmode  none
attr source  rxPkOk
attr title  "packets received OK, vector(packetBytes)"
vector 46  Topo.client2.eth[0].mac  passedUpPk:vector(packetBytes)  ETV
attr interpolationmode  none
attr source  packetSentToUpper
attr title  "packets passed to higher layer, vector(packetBytes)"
vector 73  Topo.client3.eth[0].mac  rxPkOk:vector(packetBytes)  ETV
attr interpolationmode  none
attr source  rxPkOk
attr title  "packets received OK, vector(packetBytes)"
vector 74  Topo.client3.eth[0].mac  passedUpPk:vector(packetBytes)  ETV
attr interpolationmode  none
attr source  packetSentToUpper
attr title  "packets passed to higher layer, vector(packetBytes)"
vector 101  Topo.client4.eth[0].mac  rxPkOk:vector(packetBytes)  ETV
attr interpolationmode  none
attr source  rxPkOk
attr title  "packets received OK, vector(packetBytes)"
vector 102  Topo.client4.eth[0].mac  passedUpPk:vector(packetBytes)  ETV
attr interpolationmode  none
attr source  packetSentToUpper
attr title  "packets passed to higher layer, vector(packetBytes)"
vector 129  Topo.server1.eth[0].mac  rxPkOk:vector(packetBytes)  ETV
attr interpolationmode  none
attr source  rxPkOk
attr title  "packets received OK, vector(packetBytes)"
vector 130  Topo.server1.eth[0].mac  passedUpPk:vector(packetBytes)  ETV
attr interpolationmode  none
attr source  packetSentToUpper
attr title  "packets passed to higher layer, vector(packetBytes)"
vector 157  Topo.server2.eth[0].mac  rxPkOk:vector(packetBytes)  ETV
attr interpolationmode  none
attr source  rxPkOk
attr title  "packets received OK, vector(packetBytes)"
vector 158  Topo.server2.eth[0].mac  passedUpPk:vector(packetBytes)  ETV
attr interpolationmode  none
attr source  packetSentToUpper
attr title  "packets passed to higher layer, vector(packetBytes)"
vector 185  Topo.server3.eth[0].mac  rxPkOk:vector(packetBytes)  ETV
attr interpolationmode  none
attr source  rxPkOk
attr title  "packets received OK, vector(packetBytes)"
vector 186  Topo.server3.eth[0].mac  passedUpPk:vector(packetBytes)  ETV
attr interpolationmode  none
attr source  packetSentToUpper
attr title  "packets passed to higher layer, vector(packetBytes)"
vector 54  Topo.client2.eth[0].encap  decapPk:vector(packetBytes)  ETV
attr interpolationmode  none
attr source  decapPk
attr title  "packets decapsulated, vector(packetBytes)"
vector 82  Topo.client3.eth[0].encap  decapPk:vector(packetBytes)  ETV
attr interpolationmode  none
attr source  decapPk
attr title  "packets decapsulated, vector(packetBytes)"
vector 110  Topo.client4.eth[0].encap  decapPk:vector(packetBytes)  ETV
attr interpolationmode  none
attr source  decapPk
attr title  "packets decapsulated, vector(packetBytes)"
vector 138  Topo.server1.eth[0].encap  decapPk:vector(packetBytes)  ETV
attr interpolationmode  none
attr source  decapPk
attr title  "packets decapsulated, vector(packetBytes)"
vector 166  Topo.server2.eth[0].encap  decapPk:vector(packetBytes)  ETV
attr interpolationmode  none
attr source  decapPk
attr title  "packets decapsulated, vector(packetBytes)"
vector 194  Topo.server3.eth[0].encap  decapPk:vector(packetBytes)  ETV
attr interpolationmode  none
attr source  decapPk
attr title  "packets decapsulated, vector(packetBytes)"
vector 124  Topo.server1.networkLayer.arp  sentReply:vector  ETV
attr title  "ARP replies sent, vector"
vector 137  Topo.server1.eth[0].encap  encapPk:vector(packetBytes)  ETV
attr interpolationmode  none
attr source  encapPk
attr title  "packets encapsulated, vector(packetBytes)"
vector 133  Topo.server1.eth[0].mac  rxPkFromHL:vector(packetBytes)  ETV
attr interpolationmode  none
attr source  rxPkFromHL
attr title  "packet bytes from higher layer, vector(packetBytes)"
vector 128  Topo.server1.eth[0].mac  txPk:vector(packetBytes)  ETV
attr interpolationmode  none
attr source  txPk
attr title  "packets transmitted, vector(packetBytes)"
vector 241  Topo.s1.etherMAC[4]  rxPkOk:vector(packetBytes)  ETV
attr interpolationmode  none
attr source  rxPkOk
attr title  "packets received OK, vector(packetBytes)"
vector 242  Topo.s1.etherMAC[4]  passedUpPk:vector(packetBytes)  ETV
attr interpolationmode  none
attr source  packetSentToUpper
attr title  "packets passed to higher layer, vector(packetBytes)"
vector 201  Topo.s1.etherMAC[0]  rxPkFromHL:vector(packetBytes)  ETV
attr interpolationmode  none
attr source  rxPkFromHL
attr title  "packet bytes from higher layer, vector(packetBytes)"
vector 196  Topo.s1.etherMAC[0]  txPk:vector(packetBytes)  ETV
attr interpolationmode  none
attr source  txPk
attr title  "packets transmitted, vector(packetBytes)"
vector 17  Topo.client1.eth[0].mac  rxPkOk:vector(packetBytes)  ETV
attr interpolationmode  none
attr source  rxPkOk
attr title  "packets received OK, vector(packetBytes)"
vector 18  Topo.client1.eth[0].mac  passedUpPk:vector(packetBytes)  ETV
attr interpolationmode  none
attr source  packetSentToUpper
attr title  "packets passed to higher layer, vector(packetBytes)"
vector 26  Topo.client1.eth[0].encap  decapPk:vector(packetBytes)  ETV
attr interpolationmode  none
attr source  decapPk
attr title  "packets decapsulated, vector(packetBytes)"
vector 117  Topo.server1.udp  rcvdPk:vector(packetBytes)  ETV
attr interpolationmode  none
attr source  rcvdPk
attr title  "packets received, vector(packetBytes)"
vector 122  Topo.server1.udp  rcvdPkLifetime:vector  ETV
attr interpolationmode  none
attr source  messageAge(rcvdPk)
attr title  "received packet lifetime, vector"
attr unit  s
vector 121  Topo.server1.udp  delay:vector  ETV
attr interpolationmode  none
attr source  delay
attr title  "delay, vector"
vector 118  Topo.server1.udp  passedUpPk:vector(count)  ETV
attr interpolationmode  none
attr title  "packets passed up, vector(count)"
vector 112  Topo.server1.udpApp[0]  rcvdPk:vector(packetBytes)  ETV
attr interpolationmode  none
attr source  rcvdPk
attr title  "packets received, vector(packetBytes)"
vector 113  Topo.server1.udpApp[0]  rcvdPk:vector(count)  ETV
attr interpolationmode  none
attr source  rcvdPk
attr title  "packets received, vector(count)"
vector 85  Topo.client4.udpApp[0]  sentPk:vector(packetBytes)  ETV
attr interpolationmode  none
attr source  sentPk
attr title  "packets sent, vector(packetBytes)"
vector 87  Topo.client4.udp  sentPk:vector(packetBytes)  ETV
attr interpolationmode  none
attr source  sentPk
attr title  "packets sent, vector(packetBytes)"
vector 88  Topo.client4.udp  sentPk:vector(count)  ETV
attr interpolationmode  none
attr source  sentPk
attr title  "packets sent, vector(count)"
vector 95  Topo.client4.networkLayer.arp  sentReq:vector  ETV
attr title  "ARP request sent, vector"
vector 109  Topo.client4.eth[0].encap  encapPk:vector(packetBytes)  ETV
attr interpolationmode  none
attr source  encapPk
attr title  "packets encapsulated, vector(packetBytes)"
vector 105  Topo.client4.eth[0].mac  rxPkFromHL:vector(packetBytes)  ETV
attr interpolationmode  none
attr source  rxPkFromHL
attr title  "packet bytes from higher layer, vector(packetBytes)"
vector 100  Topo.client4.eth[0].mac  txPk:vector(packetBytes)  ETV
attr interpolationmode  none
attr source  txPk
attr title  "packets transmitted, vector(packetBytes)"
vector 230  Topo.s1.etherMAC[3]  rxPkOk:vector(packetBytes)  ETV
attr interpolationmode  none
attr source  rxPkOk
attr title  "packets received OK, vector(packetBytes)"
vector 231  Topo.s1.etherMAC[3]  passedUpPk:vector(packetBytes)  ETV
attr interpolationmode  none
attr source  packetSentToUpper
attr title  "packets passed to higher layer, vector(packetBytes)"
vector 180  Topo.server3.networkLayer.arp  sentReply:vector  ETV
attr title  "ARP replies sent, vector"
vector 193  Topo.server3.eth[0].encap  encapPk:vector(packetBytes)  ETV
attr interpolationmode  none
attr source  encapPk
attr title  "packets encapsulated, vector(packetBytes)"
vector 189  Topo.server3.eth[0].mac  rxPkFromHL:vector(packetBytes)  ETV
attr interpolationmode  none
attr source  rxPkFromHL
attr title  "packet bytes from higher layer, vector(packetBytes)"
vector 184  Topo.server3.eth[0].mac  txPk:vector(packetBytes)  ETV
attr interpolationmode  none
attr source  txPk
attr title  "packets transmitted, vector(packetBytes)"
vector 263  Topo.s1.etherMAC[6]  rxPkOk:vector(packetBytes)  ETV
attr interpolationmode  none
attr source  rxPkOk
attr title  "packets received OK, vector(packetBytes)"
vector 264  Topo.s1.etherMAC[6]  passedUpPk:vector(packetBytes)  ETV
attr interpolationmode  none
attr source  packetSentToUpper
attr title  "packets passed to higher layer, vector(packetBytes)"
vector 173  Topo.server3.udp  rcvdPk:vector(packetBytes)  ETV
attr interpolationmode  none
attr source  rcvdPk
attr title  "packets received, vector(packetBytes)"
vector 178  Topo.server3.udp  rcvdPkLifetime:vector  ETV
attr interpolationmode  none
attr source  messageAge(rcvdPk)
attr title  "received packet lifetime, vector"
attr unit  s
vector 177  Topo.server3.udp  delay:vector  ETV
attr interpolationmode  none
attr source  delay
attr title  "delay, vector"
vector 174  Topo.server3.udp  passedUpPk:vector(count)  ETV
attr interpolationmode  none
attr title  "packets passed up, vector(count)"
vector 168  Topo.server3.udpApp[0]  rcvdPk:vector(packetBytes)  ETV
attr interpolationmode  none
attr source  rcvdPk
attr title  "packets received, vector(packetBytes)"
vector 169  Topo.server3.udpApp[0]  rcvdPk:vector(count)  ETV
attr interpolationmode  none
attr source  rcvdPk
attr title  "packets received, vector(count)"
vector 29  Topo.client2.udpApp[0]  sentPk:vector(packetBytes)  ETV
attr interpolationmode  none
attr source  sentPk
attr title  "packets sent, vector(packetBytes)"
vector 31  Topo.client2.udp  sentPk:vector(packetBytes)  ETV
attr interpolationmode  none
attr source  sentPk
attr title  "packets sent, vector(packetBytes)"
vector 32  Topo.client2.udp  sentPk:vector(count)  ETV
attr interpolationmode  none
attr source  sentPk
attr title  "packets sent, vector(count)"
vector 39  Topo.client2.networkLayer.arp  sentReq:vector  ETV
attr title  "ARP request sent, vector"
vector 53  Topo.client2.eth[0].encap  encapPk:vector(packetBytes)  ETV
attr interpolationmode  none
attr source  encapPk
attr title  "packets encapsulated, vector(packetBytes)"
vector 49  Topo.client2.eth[0].mac  rxPkFromHL:vector(packetBytes)  ETV
attr interpolationmode  none
attr source  rxPkFromHL
attr title  "packet bytes from higher layer, vector(packetBytes)"
vector 44  Topo.client2.eth[0].mac  txPk:vector(packetBytes)  ETV
attr interpolationmode  none
attr source  txPk
attr title  "packets transmitted, vector(packetBytes)"
vector 208  Topo.s1.etherMAC[1]  rxPkOk:vector(packetBytes)  ETV
attr interpolationmode  none
attr source  rxPkOk
attr title  "packets received OK, vector(packetBytes)"
vector 209  Topo.s1.etherMAC[1]  passedUpPk:vector(packetBytes)  ETV
attr interpolationmode  none
attr source  packetSentToUpper
attr title  "packets passed to higher layer, vector(packetBytes)"
vector 152  Topo.server2.networkLayer.arp  sentReply:vector  ETV
attr title  "ARP replies sent, vector"
vector 165  Topo.server2.eth[0].encap  encapPk:vector(packetBytes)  ETV
attr interpolationmode  none
attr source  encapPk
attr title  "packets encapsulated, vector(packetBytes)"
vector 161  Topo.server2.eth[0].mac  rxPkFromHL:vector(packetBytes)  ETV
attr interpolationmode  none
attr source  rxPkFromHL
attr title  "packet bytes from higher layer, vector(packetBytes)"
vector 156  Topo.server2.eth[0].mac  txPk:vector(packetBytes)  ETV
attr interpolationmode  none
attr source  txPk
attr title  "packets transmitted, vector(packetBytes)"
vector 252  Topo.s1.etherMAC[5]  rxPkOk:vector(packetBytes)  ETV
attr interpolationmode  none
attr source  rxPkOk
attr title  "packets received OK, vector(packetBytes)"
vector 253  Topo.s1.etherMAC[5]  passedUpPk:vector(packetBytes)  ETV
attr interpolationmode  none
attr source  packetSentToUpper
attr title  "packets passed to higher layer, vector(packetBytes)"
vector 145  Topo.server2.udp  rcvdPk:vector(packetBytes)  ETV
attr interpolationmode  none
attr source  rcvdPk
attr title  "packets received, vector(packetBytes)"
vector 150  Topo.server2.udp  rcvdPkLifetime:vector  ETV
attr interpolationmode  none
attr source  messageAge(rcvdPk)
attr title  "received packet lifetime, vector"
attr unit  s
vector 149  Topo.server2.udp  delay:vector  ETV
attr interpolationmode  none
attr source  delay
attr title  "delay, vector"
vector 146  Topo.server2.udp  passedUpPk:vector(count)  ETV
attr interpolationmode  none
attr title  "packets passed up, vector(count)"
vector 140  Topo.server2.udpApp[0]  rcvdPk:vector(packetBytes)  ETV
attr interpolationmode  none
attr source  rcvdPk
attr title  "packets received, vector(packetBytes)"
vector 141  Topo.server2.udpApp[0]  rcvdPk:vector(count)  ETV
attr interpolationmode  none
attr source  rcvdPk
attr title  "packets received, vector(count)"
vector 170  Topo.server3.udpApp[0]  rcvdAppPkt:vector  ETV
attr interpolationmode  none
attr source  rcvdAppPkt
attr title  "packets received during sec, vector"
vector 114  Topo.server1.udpApp[0]  rcvdAppPkt:vector  ETV
attr interpolationmode  none
attr source  rcvdAppPkt
attr title  "packets received during sec, vector"
vector 142  Topo.server2.udpApp[0]  rcvdAppPkt:vector  ETV
attr interpolationmode  none
attr source  rcvdAppPkt
attr title  "packets received during sec, vector"
vector 57  Topo.client3.udpApp[0]  sentPk:vector(packetBytes)  ETV
attr interpolationmode  none
attr source  sentPk
attr title  "packets sent, vector(packetBytes)"
vector 59  Topo.client3.udp  sentPk:vector(packetBytes)  ETV
attr interpolationmode  none
attr source  sentPk
attr title  "packets sent, vector(packetBytes)"
vector 60  Topo.client3.udp  sentPk:vector(count)  ETV
attr interpolationmode  none
attr source  sentPk
attr title  "packets sent, vector(count)"
vector 67  Topo.client3.networkLayer.arp  sentReq:vector  ETV
attr title  "ARP request sent, vector"
vector 81  Topo.client3.eth[0].encap  encapPk:vector(packetBytes)  ETV
attr interpolationmode  none
attr source  encapPk
attr title  "packets encapsulated, vector(packetBytes)"
vector 77  Topo.client3.eth[0].mac  rxPkFromHL:vector(packetBytes)  ETV
attr interpolationmode  none
attr source  rxPkFromHL
attr title  "packet bytes from higher layer, vector(packetBytes)"
vector 72  Topo.client3.eth[0].mac  txPk:vector(packetBytes)  ETV
attr interpolationmode  none
attr source  txPk
attr title  "packets transmitted, vector(packetBytes)"
vector 219  Topo.s1.etherMAC[2]  rxPkOk:vector(packetBytes)  ETV
attr interpolationmode  none
attr source  rxPkOk
attr title  "packets received OK, vector(packetBytes)"
vector 220  Topo.s1.etherMAC[2]  passedUpPk:vector(packetBytes)  ETV
attr interpolationmode  none
attr source  packetSentToUpper
attr title  "packets passed to higher layer, vector(packetBytes)"
1	22622 5996 181 27636 0.1 35.2 352 1250 1250 440000 550000000
3	28618 5996 185 27640 0.1 35.2 352 1258 1258 442816 557062528
4	34614 5536 185 27640 0.1 35.2 352 1 352 62128 14600080
11	40150 13 187 187 0.1 0.1 1 1 1 1 1
16	40163 8881 193 27595 0.10000576 35.10010432 352 64 1296 454960 589549312
17	49044 102 416 2473 0.100099919998 2.000043199999 4 64 64 256 16384
18	49146 102 416 2473 0.100099919998 2.000043199999 4 64 64 256 16384
21	49248 6373 191 27650 0.1 35.2 353 64 1296 456256 591228928
25	55621 6373 190 27648 0.1 35.2 353 28 1278 449884 574916752
26	61994 102 418 2480 0.100099919998 2.000043199999 4 28 28 112 3136
29	62096 1036 1249 27232 0.6 34.8 58 1250 1250 72500 90625000
31	63132 1036 1257 27238 0.6 34.8 58 1258 1258 72964 91788712
32	64168 911 1257 27238 0.6 34.8 58 1 58 1711 66729
39	65079 14 1263 1263 0.6 0.6 1 1 1 1 1
44	65093 1490 1279 27294 0.60000576 34.80010432 59 64 1296 75232 97421824
45	66583 102 279 2474 0.100043199999 2.000043199999 4 64 64 256 16384
46	66685 102 279 2474 0.100043199999 2.000043199999 4 64 64 256 16384
49	66787 1062 1275 27253 0.6 34.8 59 64 1296 75232 97421824
53	67849 1062 1272 27250 0.6 34.8 59 28 1278 74152 94731256
54	68911 102 286 2481 0.100043199999 2.000043199999 4 28 28 112 3136
57	69013 277 2357 26257 2 34 17 1250 1250 21250 26562500
59	69290 277 2365 26263 2 34 17 1258 1258 21386 26903588
60	69567 234 2365 26263 2 34 17 1 17 153 1785
67	69801 12 2371 2371 2 2 1 1 1 1 1
72	69813 456 2387 26319 2.00000576 34.00010432 18 64 1296 22096 28557568
73	70269 102 280 2610 0.100043199999 2.000099919998 4 64 64 256 16384
74	70371 102 280 2610 0.100043199999 2.000099919998 4 64 64 256 16384
77	70473 303 2383 26278 2 34 18 64 1296 22096 28557568
81	70776 303 2380 26275 2 34 18 28 1278 21754 27766612
82	71079 102 287 2612 0.100043199999 2.000099919998 4 28 28 112 3136
85	71181 3140 645 27635 0.2 35.2 176 1250 1250 220000 275000000
87	74321 3140 651 27639 0.2 35.2 176 1258 1258 221408 278531264
88	77461 2856 651 27639 0.2 35.2 176 1 176 15576 1832776
95	80317 13 655 655 0.2 0.2 1 1 1 1 1
100	80330 4617 666 27548 0.20000576 35.00010432 176 64 1296 226864 293936896
101	84947 106 281 2475 0.100043199999 2.000043199999 4 64 64 256 16384
102	85053 106 281 2475 0.100043199999 2.000043199999 4 64 64 256 16384
105	85159 3342 663 27649 0.2 35.2 177 64 1296 228160 295616512
109	88501 3342 661 27647 0.2 35.2 177 28 1278 224956 287458768
110	91843 106 288 2482 0.100043199999 2.000043199999 4 28 28 112 3136
112	91949 9216 644 27613 0.100569039992 35.10021064 351 1250 1250 438750 548437500
113	101165 8757 644 27613 0.100569039992 35.10021064 351 1 351 61776 14476176
114	109922 850 1936 27585 1.00021064 35.00021064 35 10 10 350 3500
117	110772 9216 642 27611 0.100569039992 35.10021064 351 1258 1258 441558 555479964
118	119988 8757 642 27611 0.100569039992 35.10021064 351 1 351 61776 14476176
121	128745 11330 642 27611 0.100569039992 35.10021064 351 0.00021064 0.000569039992 0.074551519986 1.6028734231666e-05
122	140075 11330 642 27611 0.100569039992 35.10021064 351 0.00021064 0.000569039992 0.074551519986 1.6028734231666e-05
124	151405 25 310 310 0.100043199999 0.100043199999 1 1 1 1 1
128	151430 26 320 320 0.100048959999 0.100048959999 1 64 64 64 4096
129	151456 9322 282 27606 0.100043199999 35.10021064 355 64 1296 455152 589561600
130	160778 9322 282 27606 0.100043199999 35.10021064 355 64 1296 455152 589561600
133	170100 26 318 318 0.100043199999 0.100043199999 1 64 64 64 4096
137	170126 26 317 317 0.100043199999 0.100043199999 1 28 28 28 784
138	170152 9322 289 27607 0.100043199999 35.10021064 355 28 1278 448690 573285820
140	179474 2005 1768 27447 0.600569039992 34.80021064 75 1250 1250 93750 117187500
141	181479 1846 1768 27447 0.600569039992 34.80021064 75 1 75 2850 143450
142	183325 803 2046 26695 1.20021064 34.000506519962 34 1 3 73 171
145	184128 2005 1766 27441 0.600569039992 34.80021064 75 1258 1258 94350 118692300
146	186133 1846 1766 27441 0.600569039992 34.80021064 75 1 75 2850 143450
149	187979 2491 1766 27441 0.600569039992 34.80021064 75 0.00021064 0.000569039992 0.017632959906 4.5881330342796e-06
150	190470 2491 1766 27441 0.600569039992 34.80021064 75 0.00021064 0.000569039992 0.017632959906 4.5881330342796e-06
152	192961 52 1397 2505 0.600043199999 2.000043199999 2 1 1 2 2
156	193013 54 1406 2514 0.600048959999 2.000048959999 2 64 64 128 8192
157	193067 3285 283 27498 0.100043199999 34.800363799968 117 64 1296 146704 189812992
158	196352 3285 283 27498 0.100043199999 34.800363799968 117 64 1296 146704 189812992
161	199637 54 1404 2512 0.600043199999 2.000043199999 2 64 64 128 8192
165	199691 54 1403 2511 0.600043199999 2.000043199999 2 28 28 56 1568
166	199745 3285 290 27499 0.100043199999 34.800363799968 117 28 1278 144526 184564228
168	203030 4600 1136 27584 0.200569039992 35.00021064 175 1250 1250 218750 273437500
169	207630 4317 1136 27584 0.200569039992 35.00021064 175 1 175 15400 1801800
170	211947 815 1935 27584 1.00021064 35.00021064 35 5 5 175 875
173	212762 4600 1134 27580 0.200569039992 35.00021064 175 1258 1258 220150 276948700
174	217362 4317 1134 27580 0.200569039992 35.00021064 175 1 175 15400 1801800
177	221679 5658 1134 27580 0.200569039992 35.00021064 175 0.00021064 0.000569039992 0.037516279959 8.2562422502651e-06
178	227337 5658 1134 27580 0.200569039992 35.00021064 175 0.00021064 0.000569039992 0.037516279959 8.2562422502651e-06
180	232995 25 785 785 0.200043199999 0.200043199999 1 1 1 1 1
184	233020 26 793 793 0.200048959999 0.200048959999 1 64 64 64 4096
185	233046 4706 284 27570 0.100043199999 35.00021064 179 64 1296 227056 293949184
186	237752 4706 284 27570 0.100043199999 35.00021064 179 64 1296 227056 293949184
189	242458 26 791 791 0.200043199999 0.200043199999 1 64 64 64 4096
193	242484 26 790 790 0.200043199999 0.200043199999 1 28 28 28 784
194	242510 4706 291 27572 0.100043199999 35.00021064 179 28 1278 223762 285827836
196	247216 106 412 2459 0.100098919998 2.000042199999 4 64 64 256 16384
197	247322 9234 195 27597 0.10000676 35.10010532 352 64 1296 454960 589549312
198	256556 9234 195 27597 0.10000676 35.10010532 352 64 1296 454960 589549312
201	265790 106 409 2451 0.100093159998 2.000036439999 4 64 64 256 16384
207	265896 106 265 2460 0.100042199999 2.000042199999 4 64 64 256 16384
208	266002 1549 1281 27307 0.60000676 34.80010532 59 64 1296 75232 97421824
209	267551 1549 1281 27307 0.60000676 34.80010532 59 64 1296 75232 97421824
212	269100 106 257 2452 0.100036439999 2.000036439999 4 64 64 256 16384
218	269206 106 266 2606 0.100042199999 2.000098919998 4 64 64 256 16384
219	269312 474 2389 26332 2.00000676 34.00010532 18 64 1296 22096 28557568
220	269786 474 2389 26332 2.00000676 34.00010532 18 64 1296 22096 28557568
223	270260 106 258 2603 0.100036439999 2.000093159998 4 64 64 256 16384
229	270366 106 267 2461 0.100042199999 2.000042199999 4 64 64 256 16384
230	270472 4617 668 27552 0.20000676 35.00010532 176 64 1296 226864 293936896
231	275089 4617 668 27552 0.20000676 35.00010532 176 64 1296 226864 293936896
234	279706 106 259 2453 0.100036439999 2.000036439999 4 64 64 256 16384
240	279812 9322 268 27604 0.100042199999 35.10020964 355 64 1296 455152 589561600
241	289134 26 322 322 0.100049959999 0.100049959999 1 64 64 64 4096
242	289160 26 322 322 0.100049959999 0.100049959999 1 64 64 64 4096