version 2
run simple_attack-0-20161207-13:17:27-24819
attr configname simple_attack
attr datetime 20161207-13:17:27
attr experiment simple_attack
attr inifile omnetpp.ini
attr iterationvars ""
attr iterationvars2 $repetition=0
attr measurement ""
attr network Topo
attr processid 24819
attr repetition 0
attr replication #0
attr resultdir results
attr runnumber 0
attr seedset 0

vector 343  Topo.s1.tcp  tcpRcvQueueBytes  ETV
vector 330  Topo.s1.tcp  "advertised window"  ETV
vector 329  Topo.s1.tcp  "receive window"  ETV
vector 332  Topo.s1.tcp  "sent ack"  ETV
vector 273  Topo.s1.networkLayer.arp  sentReq:vector  ETV
attr title  "ARP request sent, vector"
vector 284  Topo.s1.eth[0].encap  encapPk:vector(packetBytes)  ETV
attr interpolationmode  none
attr source  encapPk
attr title  "packets encapsulated, vector(packetBytes)"
vector 280  Topo.s1.eth[0].mac  rxPkFromHL:vector(packetBytes)  ETV
attr interpolationmode  none
attr source  rxPkFromHL
attr title  "packet bytes from higher layer, vector(packetBytes)"
vector 275  Topo.s1.eth[0].mac  txPk:vector(packetBytes)  ETV
attr interpolationmode  none
attr source  txPk
attr title  "packets transmitted, vector(packetBytes)"
vector 293  Topo.controller.eth[0].mac  rxPkOk:vector(packetBytes)  ETV
attr interpolationmode  none
attr source  rxPkOk
attr title  "packets received OK, vector(packetBytes)"
vector 294  Topo.controller.eth[0].mac  passedUpPk:vector(packetBytes)  ETV
attr interpolationmode  none
attr source  packetSentToUpper
attr title  "packets passed to higher layer, vector(packetBytes)"
vector 302  Topo.controller.eth[0].encap  decapPk:vector(packetBytes)  ETV
attr interpolationmode  none
attr source  decapPk
attr title  "packets decapsulated, vector(packetBytes)"
vector 288  Topo.controller.networkLayer.arp  sentReply:vector  ETV
attr title  "ARP replies sent, vector"
vector 301  Topo.controller.eth[0].encap  encapPk:vector(packetBytes)  ETV
attr interpolationmode  none
attr source  encapPk
attr title  "packets encapsulated, vector(packetBytes)"
vector 297  Topo.controller.eth[0].mac  rxPkFromHL:vector(packetBytes)  ETV
attr interpolationmode  none
attr source  rxPkFromHL
attr title  "packet bytes from higher layer, vector(packetBytes)"
vector 292  Topo.controller.eth[0].mac  txPk:vector(packetBytes)  ETV
attr interpolationmode  none
attr source  txPk
attr title  "packets transmitted, vector(packetBytes)"
vector 276  Topo.s1.eth[0].mac  rxPkOk:vector(packetBytes)  ETV
attr interpolationmode  none
attr source  rxPkOk
attr title  "packets received OK, vector(packetBytes)"
vector 277  Topo.s1.eth[0].mac  passedUpPk:vector(packetBytes)  ETV
attr interpolationmode  none
attr source  packetSentToUpper
attr title  "packets passed to higher layer, vector(packetBytes)"
vector 285  Topo.s1.eth[0].encap  decapPk:vector(packetBytes)  ETV
attr interpolationmode  none
attr source  decapPk
attr title  "packets decapsulated, vector(packetBytes)"
vector 309  Topo.controller.tcp  "rcvd seq"  ETV
vector 310  Topo.controller.tcp  "rcvd ack"  ETV
vector 306  Topo.controller.tcp  "advertised window"  ETV
vector 304  Topo.controller.tcp  "send window"  ETV
vector 319  Topo.controller.tcp  tcpRcvQueueBytes  ETV
vector 305  Topo.controller.tcp  "receive window"  ETV
vector 308  Topo.controller.tcp  "sent ack"  ETV
vector 333  Topo.s1.tcp  "rcvd seq"  ETV
vector 334  Topo.s1.tcp  "rcvd ack"  ETV
vector 328  Topo.s1.tcp  "send window"  ETV
vector 311  Topo.controller.tcp  "unacked bytes"  ETV
vector 307  Topo.controller.tcp  "sent seq"  ETV
vector 336  Topo.s1.tcp  "rcvd dupAcks"  ETV
vector 331  Topo.s1.tcp  "sent seq"  ETV
vector 335  Topo.s1.tcp  "unacked bytes"  ETV
vector 323  Topo.controller.tcp  "measured RTT"  ETV
vector 324  Topo.controller.tcp  "smoothed RTT"  ETV
vector 325  Topo.controller.tcp  RTTVAR  ETV
vector 326  Topo.controller.tcp  RTO  ETV
vector 321  Topo.controller.tcp  cwnd  ETV
vector 312  Topo.controller.tcp  "rcvd dupAcks"  ETV
vector 347  Topo.s1.tcp  "measured RTT"  ETV
vector 348  Topo.s1.tcp  "smoothed RTT"  ETV
vector 349  Topo.s1.tcp  RTTVAR  ETV
vector 350  Topo.s1.tcp  RTO  ETV
vector 345  Topo.s1.tcp  cwnd  ETV
vector 1  Topo.client1.udpApp[0]  sentPk:vector(packetBytes)  ETV
attr interpolationmode  none
attr source  sentPk
attr title  "packets sent, vector(packetBytes)"
vector 3  Topo.client1.udp  sentPk:vector(packetBytes)  ETV
attr interpolationmode  none
attr source  sentPk
attr title  "packets sent, vector(packetBytes)"
vector 4  Topo.client1.udp  sentPk:vector(count)  ETV
attr interpolationmode  none
attr source  sentPk
attr title  "packets sent, vector(count)"
vector 11  Topo.client1.networkLayer.arp  sentReq:vector  ETV
attr title  "ARP request sent, vector"
vector 25  Topo.client1.eth[0].encap  encapPk:vector(packetBytes)  ETV
attr interpolationmode  none
attr source  encapPk
attr title  "packets encapsulated, vector(packetBytes)"
vector 21  Topo.client1.eth[0].mac  rxPkFromHL:vector(packetBytes)  ETV
attr interpolationmode  none
attr source  rxPkFromHL
attr title  "packet bytes from higher layer, vector(packetBytes)"
vector 16  Topo.client1.eth[0].mac  txPk:vector(packetBytes)  ETV
attr interpolationmode  none
attr source  txPk
attr title  "packets transmitted, vector(packetBytes)"
vector 197  Topo.s1.etherMAC[0]  rxPkOk:vector(packetBytes)  ETV
attr interpolationmode  none
attr source  rxPkOk
attr title  "packets received OK, vector(packetBytes)"
vector 198  Topo.s1.etherMAC[0]  passedUpPk:vector(packetBytes)  ETV
attr interpolationmode  none
attr source  packetSentToUpper
attr title  "packets passed to higher layer, vector(packetBytes)"
vector 212  Topo.s1.etherMAC[1]  rxPkFromHL:vector(packetBytes)  ETV
attr interpolationmode  none
attr source  rxPkFromHL
attr title  "packet bytes from higher layer, vector(packetBytes)"
vector 223  Topo.s1.etherMAC[2]  rxPkFromHL:vector(packetBytes)  ETV
attr interpolationmode  none
attr source  rxPkFromHL
attr title  "packet bytes from higher layer, vector(packetBytes)"
vector 234  Topo.s1.etherMAC[3]  rxPkFromHL:vector(packetBytes)  ETV
attr interpolationmode  none
attr source  rxPkFromHL
attr title  "packet bytes from higher layer, vector(packetBytes)"
vector 245  Topo.s1.etherMAC[4]  rxPkFromHL:vector(packetBytes)  ETV
attr interpolationmode  none
attr source  rxPkFromHL
attr title  "packet bytes from higher layer, vector(packetBytes)"
vector 256  Topo.s1.etherMAC[5]  rxPkFromHL:vector(packetBytes)  ETV
attr interpolationmode  none
attr source  rxPkFromHL
attr title  "packet bytes from higher layer, vector(packetBytes)"
vector 267  Topo.s1.etherMAC[6]  rxPkFromHL:vector(packetBytes)  ETV
attr interpolationmode  none
attr source  rxPkFromHL
attr title  "packet bytes from higher layer, vector(packetBytes)"
vector 207  Topo.s1.etherMAC[1]  txPk:vector(packetBytes)  ETV
attr interpolationmode  none
attr source  txPk
attr title  "packets transmitted, vector(packetBytes)"
vector 218  Topo.s1.etherMAC[2]  txPk:vector(packetBytes)  ETV
attr interpolationmode  none
attr source  txPk
attr title  "packets transmitted, vector(packetBytes)"
vector 229  Topo.s1.etherMAC[3]  txPk:vector(packetBytes)  ETV
attr interpolationmode  none
attr source  txPk
attr title  "packets transmitted, vector(packetBytes)"
vector 240  Topo.s1.etherMAC[4]  txPk:vector(packetBytes)  ETV
attr interpolationmode  none
attr source  txPk
attr title  "packets transmitted, vector(packetBytes)"
vector 251  Topo.s1.etherMAC[5]  txPk:vector(packetBytes)  ETV
attr interpolationmode  none
attr source  txPk
attr title  "packets transmitted, vector(packetBytes)"
vector 262  Topo.s1.etherMAC[6]  txPk:vector(packetBytes)  ETV
attr interpolationmode  none
attr source  txPk
attr title  "packets transmitted, vector(packetBytes)"
vector 45  Topo.client2.eth[0].mac  rxPkOk:vector(packetBytes)  ETV
attr interpolationmode  none
attr source  rxPkOk
attr title  "packets received OK, vector(packetBytes)"
vector 46  Topo.client2.eth[0].mac  passedUpPk:vector(packetBytes)  ETV
attr interpolationmode  none
attr source  packetSentToUpper
attr title  "packets passed to higher layer, vector(packetBytes)"
vector 73  Topo.client3.eth[0].mac  rxPkOk:vector(packetBytes)  ETV
attr interpolationmode  none
attr source  rxPkOk
attr title  "packets received OK, vector(packetBytes)"
vector 74  Topo.client3.eth[0].mac  passedUpPk:vector(packetBytes)  ETV
attr interpolationmode  none
attr source  packetSentToUpper
attr title  "packets passed to higher layer, vector(packetBytes)"
vector 101  Topo.client4.eth[0].mac  rxPkOk:vector(packetBytes)  ETV
attr interpolationmode  none
attr source  rxPkOk
attr title  "packets received OK, vector(packetBytes)"
vector 102  Topo.client4.eth[0].mac  passedUpPk:vector(packetBytes)  ETV
attr interpolationmode  none
attr source  packetSentToUpper
attr title  "packets passed to higher layer, vector(packetBytes)"
vector 129  Topo.server1.eth[0].mac  rxPkOk:vector(packetBytes)  ETV
attr interpolationmode  none
attr source  rxPkOk
attr title  "packets received OK, vector(packetBytes)"
vector 130  Topo.server1.eth[0].mac  passedUpPk:vector(packetBytes)  ETV
attr interpolationmode  none
attr source  packetSentToUpper
attr title  "packets passed to higher layer, vector(packetBytes)"
vector 157  Topo.server2.eth[0].mac  rxPkOk:vector(packetBytes)  ETV
attr interpolationmode  none
attr source  rxPkOk
attr title  "packets received OK, vector(packetBytes)"
vector 158  Topo.server2.eth[0].mac  passedUpPk:vector(packetBytes)  ETV
attr interpolationmode  none
attr source  packetSentToUpper
attr title  "packets passed to higher layer, vector(packetBytes)"
vector 185  Topo.server3.eth[0].mac  rxPkOk:vector(packetBytes)  ETV
attr interpolationmode  none
attr source  rxPkOk
attr title  "packets received OK, vector(packetBytes)"
vector 186  Topo.server3.eth[0].mac  passedUpPk:vector(packetBytes)  ETV
attr interpolationmode  none
attr source  packetSentToUpper
attr title  "packets passed to higher layer, vector(packetBytes)"
vector 54  Topo.client2.eth[0].encap  decapPk:vector(packetBytes)  ETV
attr interpolationmode  none
attr source  decapPk
attr title  "packets decapsulated, vector(packetBytes)"
vector 82  Topo.client3.eth[0].encap  decapPk:vector(packetBytes)  ETV
attr interpolationmode  none
attr source  decapPk
attr title  "packets decapsulated, vector(packetBytes)"
vector 110  Topo.client4.eth[0].encap  decapPk:vector(packetBytes)  ETV
attr interpolationmode  none
attr source  decapPk
attr title  "packets decapsulated, vector(packetBytes)"
vector 138  Topo.server1.eth[0].encap  decapPk:vector(packetBytes)  ETV
attr interpolationmode  none
attr source  decapPk
attr title  "packets decapsulated, vector(packetBytes)"
vector 166  Topo.server2.eth[0].encap  decapPk:vector(packetBytes)  ETV
attr interpolationmode  none
attr source  decapPk
attr title  "packets decapsulated, vector(packetBytes)"
vector 194  Topo.server3.eth[0].encap  decapPk:vector(packetBytes)  ETV
attr interpolationmode  none
attr source  decapPk
attr title  "packets decapsulated, vector(packetBytes)"
vector 124  Topo.server1.networkLayer.arp  sentReply:vector  ETV
attr title  "ARP replies sent, vector"
vector 137  Topo.server1.eth[0].encap  encapPk:vector(packetBytes)  ETV
attr interpolationmode  none
attr source  encapPk
attr title  "packets encapsulated, vector(packetBytes)"
vector 133  Topo.server1.eth[0].mac  rxPkFromHL:vector(packetBytes)  ETV
attr interpolationmode  none
attr source  rxPkFromHL
attr title  "packet bytes from higher layer, vector(packetBytes)"
vector 128  Topo.server1.eth[0].mac  txPk:vector(packetBytes)  ETV
attr interpolationmode  none
attr source  txPk
attr title  "packets transmitted, vector(packetBytes)"
vector 241  Topo.s1.etherMAC[4]  rxPkOk:vector(packetBytes)  ETV
attr interpolationmode  none
attr source  rxPkOk
attr title  "packets received OK, vector(packetBytes)"
vector 242  Topo.s1.etherMAC[4]  passedUpPk:vector(packetBytes)  ETV
attr interpolationmode  none
attr source  packetSentToUpper
attr title  "packets passed to higher layer, vector(packetBytes)"
vector 201  Topo.s1.etherMAC[0]  rxPkFromHL:vector(packetBytes)  ETV
attr interpolationmode  none
attr source  rxPkFromHL
attr title  "packet bytes from higher layer, vector(packetBytes)"
vector 196  Topo.s1.etherMAC[0]  txPk:vector(packetBytes)  ETV
attr interpolationmode  none
attr source  txPk
attr title  "packets transmitted, vector(packetBytes)"
vector 17  Topo.client1.eth[0].mac  rxPkOk:vector(packetBytes)  ETV
attr interpolationmode  none
attr source  rxPkOk
attr title  "packets received OK, vector(packetBytes)"
vector 18  Topo.client1.eth[0].mac  passedUpPk:vector(packetBytes)  ETV
attr interpolationmode  none
attr source  packetSentToUpper
attr title  "packets passed to higher layer, vector(packetBytes)"
vector 26  Topo.client1.eth[0].encap  decapPk:vector(packetBytes)  ETV
attr interpolationmode  none
attr source  decapPk
attr title  "packets decapsulated, vector(packetBytes)"
vector 117  Topo.server1.udp  rcvdPk:vector(packetBytes)  ETV
attr interpolationmode  none
attr source  rcvdPk
attr title  "packets received, vector(packetBytes)"
vector 122  Topo.server1.udp  rcvdPkLifetime:vector  ETV
attr interpolationmode  none
attr source  messageAge(rcvdPk)
attr title  "received packet lifetime, vector"
attr unit  s
vector 121  Topo.server1.udp  delay:vector  ETV
attr interpolationmode  none
attr source  delay
attr title  "delay, vector"
vector 118  Topo.server1.udp  passedUpPk:vector(count)  ETV
attr interpolationmode  none
attr title  "packets passed up, vector(count)"
vector 112  Topo.server1.udpApp[0]  rcvdPk:vector(packetBytes)  ETV
attr interpolationmode  none
attr source  rcvdPk
attr title  "packets received, vector(packetBytes)"
vector 113  Topo.server1.udpApp[0]  rcvdPk:vector(count)  ETV
attr interpolationmode  none
attr source  rcvdPk
attr title  "packets received, vector(count)"
vector 85  Topo.client4.udpApp[0]  sentPk:vector(packetBytes)  ETV
attr interpolationmode  none
attr source  sentPk
attr title  "packets sent, vector(packetBytes)"
vector 87  Topo.client4.udp  sentPk:vector(packetBytes)  ETV
attr interpolationmode  none
attr source  sentPk
attr title  "packets sent, vector(packetBytes)"
vector 88  Topo.client4.udp  sentPk:vector(count)  ETV
attr interpolationmode  none
attr source  sentPk
attr title  "packets sent, vector(count)"
vector 95  Topo.client4.networkLayer.arp  sentReq:vector  ETV
attr title  "ARP request sent, vector"
vector 109  Topo.client4.eth[0].encap  encapPk:vector(packetBytes)  ETV
attr interpolationmode  none
attr source  encapPk
attr title  "packets encapsulated, vector(packetBytes)"
vector 105  Topo.client4.eth[0].mac  rxPkFromHL:vector(packetBytes)  ETV
attr interpolationmode  none
attr source  rxPkFromHL
attr title  "packet bytes from higher layer, vector(packetBytes)"
vector 100  Topo.client4.eth[0].mac  txPk:vector(packetBytes)  ETV
attr interpolationmode  none
attr source  txPk
attr title  "packets transmitted, vector(packetBytes)"
vector 230  Topo.s1.etherMAC[3]  rxPkOk:vector(packetBytes)  ETV
attr interpolationmode  none
attr source  rxPkOk
attr title  "packets received OK, vector(packetBytes)"
vector 231  Topo.s1.etherMAC[3]  passedUpPk:vector(packetBytes)  ETV
attr interpolationmode  none
attr source  packetSentToUpper
attr title  "packets passed to higher layer, vector(packetBytes)"
vector 180  Topo.server3.networkLayer.arp  sentReply:vector  ETV
attr title  "ARP replies sent, vector"
vector 193  Topo.server3.eth[0].encap  encapPk:vector(packetBytes)  ETV
attr interpolationmode  none
attr source  encapPk
attr title  "packets encapsulated, vector(packetBytes)"
vector 189  Topo.server3.eth[0].mac  rxPkFromHL:vector(packetBytes)  ETV
attr interpolationmode  none
attr source  rxPkFromHL
attr title  "packet bytes from higher layer, vector(packetBytes)"
vector 184  Topo.server3.eth[0].mac  txPk:vector(packetBytes)  ETV
attr interpolationmode  none
attr source  txPk
attr title  "packets transmitted, vector(packetBytes)"
vector 263  Topo.s1.etherMAC[6]  rxPkOk:vector(packetBytes)  ETV
attr interpolationmode  none
attr source  rxPkOk
attr title  "packets received OK, vector(packetBytes)"
vector 264  Topo.s1.etherMAC[6]  passedUpPk:vector(packetBytes)  ETV
attr interpolationmode  none
attr source  packetSentToUpper
attr title  "packets passed to higher layer, vector(packetBytes)"
vector 173  Topo.server3.udp  rcvdPk:vector(packetBytes)  ETV
attr interpolationmode  none
attr source  rcvdPk
attr title  "packets received, vector(packetBytes)"
vector 178  Topo.server3.udp  rcvdPkLifetime:vector  ETV
attr interpolationmode  none
attr source  messageAge(rcvdPk)
attr title  "received packet lifetime, vector"
attr unit  s
vector 177  Topo.server3.udp  delay:vector  ETV
attr interpolationmode  none
attr source  delay
attr title  "delay, vector"
vector 174  Topo.server3.udp  passedUpPk:vector(count)  ETV
attr interpolationmode  none
attr title  "packets passed up, vector(count)"
vector 168  Topo.server3.udpApp[0]  rcvdPk:vector(packetBytes)  ETV
attr interpolationmode  none
attr source  rcvdPk
attr title  "packets received, vector(packetBytes)"
vector 169  Topo.server3.udpApp[0]  rcvdPk:vector(count)  ETV
attr interpolationmode  none
attr source  rcvdPk
attr title  "packets received, vector(count)"
vector 29  Topo.client2.udpApp[0]  sentPk:vector(packetBytes)  ETV
attr interpolationmode  none
attr source  sentPk
attr title  "packets sent, vector(packetBytes)"
vector 31  Topo.client2.udp  sentPk:vector(packetBytes)  ETV
attr interpolationmode  none
attr source  sentPk
attr title  "packets sent, vector(packetBytes)"
vector 32  Topo.client2.udp  sentPk:vector(count)  ETV
attr interpolationmode  none
attr source  sentPk
attr title  "packets sent, vector(count)"
vector 39  Topo.client2.networkLayer.arp  sentReq:vector  ETV
attr title  "ARP request sent, vector"
vector 53  Topo.client2.eth[0].encap  encapPk:vector(packetBytes)  ETV
attr interpolationmode  none
attr source  encapPk
attr title  "packets encapsulated, vector(packetBytes)"
vector 49  Topo.client2.eth[0].mac  rxPkFromHL:vector(packetBytes)  ETV
attr interpolationmode  none
attr source  rxPkFromHL
attr title  "packet bytes from higher layer, vector(packetBytes)"
vector 44  Topo.client2.eth[0].mac  txPk:vector(packetBytes)  ETV
attr interpolationmode  none
attr source  txPk
attr title  "packets transmitted, vector(packetBytes)"
vector 208  Topo.s1.etherMAC[1]  rxPkOk:vector(packetBytes)  ETV
attr interpolationmode  none
attr source  rxPkOk
attr title  "packets received OK, vector(packetBytes)"
vector 209  Topo.s1.etherMAC[1]  passedUpPk:vector(packetBytes)  ETV
attr interpolationmode  none
attr source  packetSentToUpper
attr title  "packets passed to higher layer, vector(packetBytes)"
vector 152  Topo.server2.networkLayer.arp  sentReply:vector  ETV
attr title  "ARP replies sent, vector"
vector 165  Topo.server2.eth[0].encap  encapPk:vector(packetBytes)  ETV
attr interpolationmode  none
attr source  encapPk
attr title  "packets encapsulated, vector(packetBytes)"
vector 161  Topo.server2.eth[0].mac  rxPkFromHL:vector(packetBytes)  ETV
attr interpolationmode  none
attr source  rxPkFromHL
attr title  "packet bytes from higher layer, vector(packetBytes)"
vector 156  Topo.server2.eth[0].mac  txPk:vector(packetBytes)  ETV
attr interpolationmode  none
attr source  txPk
attr title  "packets transmitted, vector(packetBytes)"
vector 252  Topo.s1.etherMAC[5]  rxPkOk:vector(packetBytes)  ETV
attr interpolationmode  none
attr source  rxPkOk
attr title  "packets received OK, vector(packetBytes)"
vector 253  Topo.s1.etherMAC[5]  passedUpPk:vector(packetBytes)  ETV
attr interpolationmode  none
attr source  packetSentToUpper
attr title  "packets passed to higher layer, vector(packetBytes)"
vector 145  Topo.server2.udp  rcvdPk:vector(packetBytes)  ETV
attr interpolationmode  none
attr source  rcvdPk
attr title  "packets received, vector(packetBytes)"
vector 150  Topo.server2.udp  rcvdPkLifetime:vector  ETV
attr interpolationmode  none
attr source  messageAge(rcvdPk)
attr title  "received packet lifetime, vector"
attr unit  s
vector 149  Topo.server2.udp  delay:vector  ETV
attr interpolationmode  none
attr source  delay
attr title  "delay, vector"
vector 146  Topo.server2.udp  passedUpPk:vector(count)  ETV
attr interpolationmode  none
attr title  "packets passed up, vector(count)"
vector 140  Topo.server2.udpApp[0]  rcvdPk:vector(packetBytes)  ETV
attr interpolationmode  none
attr source  rcvdPk
attr title  "packets received, vector(packetBytes)"
vector 141  Topo.server2.udpApp[0]  rcvdPk:vector(count)  ETV
attr interpolationmode  none
attr source  rcvdPk
attr title  "packets received, vector(count)"
vector 170  Topo.server3.udpApp[0]  rcvdAppPkt:vector  ETV
attr interpolationmode  none
attr source  rcvdAppPkt
attr title  "packets received during sec, vector"
vector 114  Topo.server1.udpApp[0]  rcvdAppPkt:vector  ETV
attr interpolationmode  none
attr source  rcvdAppPkt
attr title  "packets received during sec, vector"
vector 142  Topo.server2.udpApp[0]  rcvdAppPkt:vector  ETV
attr interpolationmode  none
attr source  rcvdAppPkt
attr title  "packets received during sec, vector"
vector 57  Topo.client3.udpApp[0]  sentPk:vector(packetBytes)  ETV
attr interpolationmode  none
attr source  sentPk
attr title  "packets sent, vector(packetBytes)"
vector 59  Topo.client3.udp  sentPk:vector(packetBytes)  ETV
attr interpolationmode  none
attr source  sentPk
attr title  "packets sent, vector(packetBytes)"
vector 60  Topo.client3.udp  sentPk:vector(count)  ETV
attr interpolationmode  none
attr source  sentPk
attr title  "packets sent, vector(count)"
vector 67  Topo.client3.networkLayer.arp  sentReq:vector  ETV
attr title  "ARP request sent, vector"
vector 81  Topo.client3.eth[0].encap  encapPk:vector(packetBytes)  ETV
attr interpolationmode  none
attr source  encapPk
attr title  "packets encapsulated, vector(packetBytes)"
vector 77  Topo.client3.eth[0].mac  rxPkFromHL:vector(packetBytes)  ETV
attr interpolationmode  none
attr source  rxPkFromHL
attr title  "packet bytes from higher layer, vector(packetBytes)"
vector 72  Topo.client3.eth[0].mac  txPk:vector(packetBytes)  ETV
attr interpolationmode  none
attr source  txPk
attr title  "packets transmitted, vector(packetBytes)"
vector 219  Topo.s1.etherMAC[2]  rxPkOk:vector(packetBytes)  ETV
attr interpolationmode  none
attr source  rxPkOk
attr title  "packets received OK, vector(packetBytes)"
vector 220  Topo.s1.etherMAC[2]  passedUpPk:vector(packetBytes)  ETV
attr interpolationmode  none
attr source  packetSentToUpper
attr title  "packets passed to higher layer, vector(packetBytes)"
1	181	0.1	1250
1	646	0.2	1250
1	1137	0.3	1250
1	1166	0.4	1250
1	1221	0.5	1250
1	1251	0.6	1250
1	1769	0.7	1250
1	1798	0.8	1250
1	1853	0.9	1250
1	1882	1	1250
1	1937	1.1	1250
1	1967	1.2	1250
1	2049	1.3	1250
1	2078	1.4	1250
1	2133	1.5	1250
1	2162	1.6	1250
1	2217	1.7	1250
1	2247	1.8	1250
1	2329	1.9	1250
1	2360	2	1250
1	2944	2.1	1250
1	2973	2.2	1250
1	3028	2.3	1250
1	3058	2.4	1250
1	3140	2.5	1250
1	3169	2.6	1250
1	3224	2.7	1250
1	3253	2.8	1250
1	3308	2.9	1250
1	3339	3	1250
1	3421	3.1	1250
1	3450	3.2	1250
1	3505	3.3	1250
1	3534	3.4	1250
1	3589	3.5	1250
1	3619	3.6	1250
1	3701	3.7	1250
1	3730	3.8	1250
1	3785	3.9	1250
1	3816	4	1250
1	3990	4.1	1250
1	4020	4.2	1250
1	4102	4.3	1250
1	4131	4.4	1250
1	4186	4.5	1250
1	4215	4.6	1250
1	4270	4.7	1250
1	4300	4.8	1250
1	4382	4.9	1250
1	4412	5	1250
1	4467	5.1	1250
1	4496	5.2	1250
1	4551	5.3	1250
1	4581	5.4	1250
1	4663	5.5	1250
1	4692	5.6	1250
1	4747	5.7	1250
1	4776	5.8	1250
1	4831	5.9	1250
1	4863	6	1250
1	5064	6.1	1250
1	5093	6.2	1250
1	5148	6.3	1250
1	5177	6.4	1250
1	5232	6.5	1250
1	5262	6.6	1250
1	5344	6.7	1250
1	5373	6.8	1250
1	5428	6.9	1250
1	5458	7	1250
1	5513	7.1	1250
1	5543	7.2	1250
1	5625	7.3	1250
1	5654	7.4	1250
1	5709	7.5	1250
1	5738	7.6	1250
1	5793	7.7	1250
1	5823	7.8	1250
1	5905	7.9	1250
1	5936	8	1250
1	6110	8.1	1250
1	6139	8.2	1250
1	6194	8.3	1250
1	6224	8.4	1250
1	6306	8.5	1250
1	6335	8.6	1250
1	6390	8.7	1250
1	6419	8.8	1250
1	6474	8.9	1250
1	6505	9	1250
1	6587	9.1	1250
1	6616	9.2	1250
1	6671	9.3	1250
1	6700	9.4	1250
1	6755	9.5	1250
1	6785	9.6	1250
1	6867	9.7	1250
1	6896	9.8	1250
1	6951	9.9	1250
1	6982	10	1250
1	7156	10.1	1250
1	7186	10.2	1250
1	7268	10.3	1250
1	7297	10.4	1250
1	7352	10.5	1250
1	7381	10.6	1250
1	7436	10.7	1250
1	7466	10.8	1250
1	7548	10.9	1250
1	7578	11	1250
1	7633	11.1	1250
1	7662	11.2	1250
1	7717	11.3	1250
1	7747	11.4	1250
1	7829	11.5	1250
1	7858	11.6	1250
1	7913	11.7	1250
1	7942	11.8	1250
1	7997	11.9	1250
1	8029	12	1250
1	8230	12.1	1250
1	8259	12.2	1250
1	8314	12.3	1250
1	8343	12.4	1250
1	8398	12.5	1250
1	8428	12.6	1250
1	8510	12.7	1250
1	8539	12.8	1250
1	8594	12.9	1250
1	8624	13	1250
1	8679	13.1	1250
1	8709	13.2	1250
1	8791	13.3	1250
1	8820	13.4	1250
1	8875	13.5	1250
1	8904	13.6	1250
1	8959	13.7	1250
1	8989	13.8	1250
1	9071	13.9	1250
1	9102	14	1250
1	9276	14.1	1250
1	9305	14.2	1250
1	9360	14.3	1250
1	9390	14.4	1250
1	9472	14.5	1250
1	9501	14.6	1250
1	9556	14.7	1250
1	9585	14.8	1250
1	9640	14.9	1250
1	9671	15	1250
1	9753	15.1	1250
1	9782	15.2	1250
1	9837	15.3	1250
1	9866	15.4	1250
1	9921	15.5	1250
1	9951	15.6	1250
1	10033	15.7	1250
1	10062	15.8	1250
1	10117	15.9	1250
1	10148	16	1250
1	10322	16.1	1250
1	10352	16.2	1250
1	10434	16.3	1250
1	10463	16.4	1250
1	10518	16.5	1250
1	10547	16.6	1250
1	10602	16.7	1250
1	10632	16.8	1250
1	10714	16.9	1250
1	10744	17	1250
1	10799	17.1	1250
1	10828	17.2	1250
1	10883	17.3	1250
1	10913	17.4	1250
1	10995	17.5	1250
1	11024	17.6	1250
1	11079	17.7	1250
1	11108	17.8	1250
1	11163	17.9	1250
1	11195	18	1250
1	11396	18.1	1250
1	11425	18.2	1250
1	11480	18.3	1250
1	11509	18.4	1250
1	11564	18.5	1250
1	11594	18.6	1250
1	11676	18.7	1250
1	11705	18.8	1250
1	11760	18.9	1250
1	11790	19	1250
1	11845	19.1	1250
1	11875	19.2	1250
1	11957	19.3	1250
1	11986	19.4	1250
1	12041	19.5	1250
1	12070	19.6	1250
1	12125	19.7	1250
1	12155	19.8	1250
1	12237	19.9	1250
1	12269	20	1250
1	12597	20.1	1250
1	12626	20.2	1250
1	12681	20.3	1250
1	12712	20.4	1250
1	13000	20.5	1250
1	13029	20.6	1250
1	13084	20.7	1250
1	13134	20.8	1250
1	13375	20.9	1250
1	13406	21	1250
1	13488	21.1	1250
1	13538	21.2	1250
1	13779	21.3	1250
1	13808	21.4	1250
1	13863	21.5	1250
1	13914	21.6	1250
1	14182	21.7	1250
1	14211	21.8	1250
1	14266	21.9	1250
1	14318	22	1250
1	14626	22.1	1250
1	14656	22.2	1250
1	14738	22.3	1250
1	14788	22.4	1250
1	15029	22.5	1250
1	15058	22.6	1250
1	15113	22.7	1250
1	15164	22.8	1250
1	15432	22.9	1250
1	15462	23	1250
1	15517	23.1	1250
1	15567	23.2	1250
1	15808	23.3	1250
1	15838	23.4	1250
1	15920	23.5	1250
1	15970	23.6	1250
1	16211	23.7	1250
1	16240	23.8	1250
1	16295	23.9	1250
1	16348	24	1250
1	16683	24.1	1250
1	16712	24.2	1250
1	16767	24.3	1250
1	16817	24.4	1250
1	17058	24.5	1250
1	17088	24.6	1250
1	17170	24.7	1250
1	17220	24.8	1250
1	17461	24.9	1250
1	17491	25	1250
1	17546	25.1	1250
1	17597	25.2	1250
1	17865	25.3	1250
1	17894	25.4	1250
1	17949	25.5	1250
1	17999	25.6	1250
1	18240	25.7	1250
1	18270	25.8	1250
1	18352	25.9	1250
1	18404	26	1250
1	18712	26.1	1250
1	18741	26.2	1250
1	18796	26.3	1250
1	18847	26.4	1250
1	19115	26.5	1250
1	19144	26.6	1250
1	19199	26.7	1250
1	19249	26.8	1250
1	19490	26.9	1250
1	19521	27	1250
1	19603	27.1	1250
1	19653	27.2	1250
1	19894	27.3	1250
1	19923	27.4	1250
1	19978	27.5	1250
1	20029	27.6	1250
1	20297	27.7	1250
1	20326	27.8	1250
1	20381	27.9	1250
1	20433	28	1250
1	20741	28.1	1250
1	20771	28.2	1250
1	20853	28.3	1250
1	20903	28.4	1250
1	21144	28.5	1250
1	21173	28.6	1250
1	21228	28.7	1250
1	21279	28.8	1250
1	21547	28.9	1250
1	21577	29	1250
1	21632	29.1	1250
1	21682	29.2	1250
1	21923	29.3	1250
1	21953	29.4	1250
1	22035	29.5	1250
1	22085	29.6	1250
1	22326	29.7	1250
1	22355	29.8	1250
1	22410	29.9	1250
1	22464	30	1250
1	22834	30.1	1250
1	22927	30.2	1250
1	23241	30.3	1250
1	23291	30.4	1250
1	23701	30.5	1250
1	23731	30.6	1250
1	23877	30.7	1250
1	23927	30.8	1250
1	24168	30.9	1250
1	24199	31	1250
1	24254	31.1	1250
1	24305	31.2	1250
1	24742	31.3	1250
1	24771	31.4	1250
1	24826	31.5	1250
1	24876	31.6	1250
1	25117	31.7	1250
1	25147	31.8	1250
1	25229	31.9	1250
1	25282	32	1250
1	25694	32.1	1250
1	25723	32.2	1250
1	25778	32.3	1250
1	25829	32.4	1250
1	26097	32.5	1250
1	26126	32.6	1250
1	26181	32.7	1250
1	26231	32.8	1250
1	26472	32.9	1250
1	26504	33	1250
1	26586	33.1	1250
1	26636	33.2	1250
1	26877	33.3	1250
1	26906	33.4	1250
1	26961	33.5	1250
1	27012	33.6	1250
1	27280	33.7	1250
1	27309	33.8	1250
1	27364	33.9	1250
1	27417	34	1250
1	27934	34.1	1250
1	27964	34.2	1250
1	28046	34.3	1250
1	28096	34.4	1250
1	28337	34.5	1250
1	28366	34.6	1250
1	28421	34.7	1250
1	28472	34.8	1250
1	28740	34.9	1250
1	28771	35	1250
1	28826	35.1	1250
1	28876	35.2	1250
1	29117	35.3	1250
1	29147	35.4	1250
1	29229	35.5	1250
1	29279	35.6	1250
1	29520	35.7	1250
1	29549	35.8	1250
1	29604	35.9	1250
1	29658	36	1250
1	30033	36.1	1250
1	30062	36.2	1250
1	30117	36.3	1250
1	30167	36.4	1250
1	30408	36.5	1250
1	30438	36.6	1250
1	30520	36.7	1250
1	30570	36.8	1250
1	30811	36.9	1250
1	30842	37	1250
1	30897	37.1	1250
1	30948	37.2	1250
1	31216	37.3	1250
1	31245	37.4	1250
1	31300	37.5	1250
1	31350	37.6	1250
1	31591	37.7	1250
1	31621	37.8	1250
1	31703	37.9	1250
1	31756	38	1250
1	32104	38.1	1250
1	32133	38.2	1250
1	32188	38.3	1250
1	32239	38.4	1250
1	32507	38.5	1250
1	32536	38.6	1250
1	32591	38.7	1250
1	32641	38.8	1250
1	32882	38.9	1250
1	32914	39	1250
1	32996	39.1	1250
1	33046	39.2	1250
1	33287	39.3	1250
1	33316	39.4	1250
1	33371	39.5	1250
1	33422	39.6	1250
1	33690	39.7	1250
1	33719	39.8	1250
1	33774	39.9	1250
1	33827	40	1250
1	34175	40.1	1250
1	34205	40.2	1250
1	34287	40.3	1250
1	34337	40.4	1250
1	34578	40.5	1250
1	34607	40.6	1250
1	34662	40.7	1250
1	34713	40.8	1250
1	34981	40.9	1250
1	35012	41	1250
1	35067	41.1	1250
1	35117	41.2	1250
1	35358	41.3	1250
1	35388	41.4	1250
1	35470	41.5	1250
1	35520	41.6	1250
1	35761	41.7	1250
1	35790	41.8	1250
1	35845	41.9	1250
1	35899	42	1250
1	36274	42.1	1250
1	36303	42.2	1250
1	36358	42.3	1250
1	36408	42.4	1250
1	36649	42.5	1250
1	36679	42.6	1250
1	36761	42.7	1250
1	36811	42.8	1250