version 2
run simple_attack-0-20161004-17:22:50-24206
attr configname simple_attack
attr datetime 20161004-17:22:50
attr experiment simple_attack
attr inifile omnetpp.ini
attr iterationvars ""
attr iterationvars2 $repetition=0
attr measurement ""
attr network Topo
attr processid 24206
attr repetition 0
attr replication #0
attr resultdir results
attr runnumber 0
attr seedset 0

vector 330  Topo.s1.tcp  tcpRcvQueueBytes  ETV
vector 317  Topo.s1.tcp  "advertised window"  ETV
vector 316  Topo.s1.tcp  "receive window"  ETV
vector 319  Topo.s1.tcp  "sent ack"  ETV
vector 259  Topo.s1.networkLayer.arp  sentReq:vector  ETV
attr title  "ARP request sent, vector"
vector 270  Topo.s1.eth[0].encap  encapPk:vector(packetBytes)  ETV
attr interpolationmode  none
attr source  encapPk
attr title  "packets encapsulated, vector(packetBytes)"
vector 266  Topo.s1.eth[0].mac  rxPkFromHL:vector(packetBytes)  ETV
attr interpolationmode  none
attr source  rxPkFromHL
attr title  "packet bytes from higher layer, vector(packetBytes)"
vector 261  Topo.s1.eth[0].mac  txPk:vector(packetBytes)  ETV
attr interpolationmode  none
attr source  txPk
attr title  "packets transmitted, vector(packetBytes)"
vector 280  Topo.controller.eth[0].mac  rxPkOk:vector(packetBytes)  ETV
attr interpolationmode  none
attr source  rxPkOk
attr title  "packets received OK, vector(packetBytes)"
vector 281  Topo.controller.eth[0].mac  passedUpPk:vector(packetBytes)  ETV
attr interpolationmode  none
attr source  packetSentToUpper
attr title  "packets passed to higher layer, vector(packetBytes)"
vector 289  Topo.controller.eth[0].encap  decapPk:vector(packetBytes)  ETV
attr interpolationmode  none
attr source  decapPk
attr title  "packets decapsulated, vector(packetBytes)"
vector 275  Topo.controller.networkLayer.arp  sentReply:vector  ETV
attr title  "ARP replies sent, vector"
vector 288  Topo.controller.eth[0].encap  encapPk:vector(packetBytes)  ETV
attr interpolationmode  none
attr source  encapPk
attr title  "packets encapsulated, vector(packetBytes)"
vector 284  Topo.controller.eth[0].mac  rxPkFromHL:vector(packetBytes)  ETV
attr interpolationmode  none
attr source  rxPkFromHL
attr title  "packet bytes from higher layer, vector(packetBytes)"
vector 279  Topo.controller.eth[0].mac  txPk:vector(packetBytes)  ETV
attr interpolationmode  none
attr source  txPk
attr title  "packets transmitted, vector(packetBytes)"
vector 262  Topo.s1.eth[0].mac  rxPkOk:vector(packetBytes)  ETV
attr interpolationmode  none
attr source  rxPkOk
attr title  "packets received OK, vector(packetBytes)"
vector 263  Topo.s1.eth[0].mac  passedUpPk:vector(packetBytes)  ETV
attr interpolationmode  none
attr source  packetSentToUpper
attr title  "packets passed to higher layer, vector(packetBytes)"
vector 271  Topo.s1.eth[0].encap  decapPk:vector(packetBytes)  ETV
attr interpolationmode  none
attr source  decapPk
attr title  "packets decapsulated, vector(packetBytes)"
vector 296  Topo.controller.tcp  "rcvd seq"  ETV
vector 297  Topo.controller.tcp  "rcvd ack"  ETV
vector 293  Topo.controller.tcp  "advertised window"  ETV
vector 291  Topo.controller.tcp  "send window"  ETV
vector 306  Topo.controller.tcp  tcpRcvQueueBytes  ETV
vector 292  Topo.controller.tcp  "receive window"  ETV
vector 295  Topo.controller.tcp  "sent ack"  ETV
vector 320  Topo.s1.tcp  "rcvd seq"  ETV
vector 321  Topo.s1.tcp  "rcvd ack"  ETV
vector 315  Topo.s1.tcp  "send window"  ETV
vector 298  Topo.controller.tcp  "unacked bytes"  ETV
vector 294  Topo.controller.tcp  "sent seq"  ETV
vector 323  Topo.s1.tcp  "rcvd dupAcks"  ETV
vector 318  Topo.s1.tcp  "sent seq"  ETV
vector 322  Topo.s1.tcp  "unacked bytes"  ETV
vector 310  Topo.controller.tcp  "measured RTT"  ETV
vector 311  Topo.controller.tcp  "smoothed RTT"  ETV
vector 312  Topo.controller.tcp  RTTVAR  ETV
vector 313  Topo.controller.tcp  RTO  ETV
vector 308  Topo.controller.tcp  cwnd  ETV
vector 299  Topo.controller.tcp  "rcvd dupAcks"  ETV
vector 334  Topo.s1.tcp  "measured RTT"  ETV
vector 335  Topo.s1.tcp  "smoothed RTT"  ETV
vector 336  Topo.s1.tcp  RTTVAR  ETV
vector 337  Topo.s1.tcp  RTO  ETV
vector 332  Topo.s1.tcp  cwnd  ETV
vector 1  Topo.client1.udpApp[0]  sentPk:vector(packetBytes)  ETV
attr interpolationmode  none
attr source  sentPk
attr title  "packets sent, vector(packetBytes)"
vector 3  Topo.client1.udp  sentPk:vector(packetBytes)  ETV
attr interpolationmode  none
attr source  sentPk
attr title  "packets sent, vector(packetBytes)"
vector 4  Topo.client1.udp  sentPk:vector(count)  ETV
attr interpolationmode  none
attr source  sentPk
attr title  "packets sent, vector(count)"
vector 9  Topo.client1.networkLayer.arp  sentReq:vector  ETV
attr title  "ARP request sent, vector"
vector 23  Topo.client1.eth[0].encap  encapPk:vector(packetBytes)  ETV
attr interpolationmode  none
attr source  encapPk
attr title  "packets encapsulated, vector(packetBytes)"
vector 19  Topo.client1.eth[0].mac  rxPkFromHL:vector(packetBytes)  ETV
attr interpolationmode  none
attr source  rxPkFromHL
attr title  "packet bytes from higher layer, vector(packetBytes)"
vector 14  Topo.client1.eth[0].mac  txPk:vector(packetBytes)  ETV
attr interpolationmode  none
attr source  txPk
attr title  "packets transmitted, vector(packetBytes)"
vector 183  Topo.s1.etherMAC[0]  rxPkOk:vector(packetBytes)  ETV
attr interpolationmode  none
attr source  rxPkOk
attr title  "packets received OK, vector(packetBytes)"
vector 184  Topo.s1.etherMAC[0]  passedUpPk:vector(packetBytes)  ETV
attr interpolationmode  none
attr source  packetSentToUpper
attr title  "packets passed to higher layer, vector(packetBytes)"
vector 198  Topo.s1.etherMAC[1]  rxPkFromHL:vector(packetBytes)  ETV
attr interpolationmode  none
attr source  rxPkFromHL
attr title  "packet bytes from higher layer, vector(packetBytes)"
vector 209  Topo.s1.etherMAC[2]  rxPkFromHL:vector(packetBytes)  ETV
attr interpolationmode  none
attr source  rxPkFromHL
attr title  "packet bytes from higher layer, vector(packetBytes)"
vector 220  Topo.s1.etherMAC[3]  rxPkFromHL:vector(packetBytes)  ETV
attr interpolationmode  none
attr source  rxPkFromHL
attr title  "packet bytes from higher layer, vector(packetBytes)"
vector 231  Topo.s1.etherMAC[4]  rxPkFromHL:vector(packetBytes)  ETV
attr interpolationmode  none
attr source  rxPkFromHL
attr title  "packet bytes from higher layer, vector(packetBytes)"
vector 242  Topo.s1.etherMAC[5]  rxPkFromHL:vector(packetBytes)  ETV
attr interpolationmode  none
attr source  rxPkFromHL
attr title  "packet bytes from higher layer, vector(packetBytes)"
vector 253  Topo.s1.etherMAC[6]  rxPkFromHL:vector(packetBytes)  ETV
attr interpolationmode  none
attr source  rxPkFromHL
attr title  "packet bytes from higher layer, vector(packetBytes)"
vector 193  Topo.s1.etherMAC[1]  txPk:vector(packetBytes)  ETV
attr interpolationmode  none
attr source  txPk
attr title  "packets transmitted, vector(packetBytes)"
vector 204  Topo.s1.etherMAC[2]  txPk:vector(packetBytes)  ETV
attr interpolationmode  none
attr source  txPk
attr title  "packets transmitted, vector(packetBytes)"
vector 215  Topo.s1.etherMAC[3]  txPk:vector(packetBytes)  ETV
attr interpolationmode  none
attr source  txPk
attr title  "packets transmitted, vector(packetBytes)"
vector 226  Topo.s1.etherMAC[4]  txPk:vector(packetBytes)  ETV
attr interpolationmode  none
attr source  txPk
attr title  "packets transmitted, vector(packetBytes)"
vector 237  Topo.s1.etherMAC[5]  txPk:vector(packetBytes)  ETV
attr interpolationmode  none
attr source  txPk
attr title  "packets transmitted, vector(packetBytes)"
vector 248  Topo.s1.etherMAC[6]  txPk:vector(packetBytes)  ETV
attr interpolationmode  none
attr source  txPk
attr title  "packets transmitted, vector(packetBytes)"
vector 41  Topo.client2.eth[0].mac  rxPkOk:vector(packetBytes)  ETV
attr interpolationmode  none
attr source  rxPkOk
attr title  "packets received OK, vector(packetBytes)"
vector 42  Topo.client2.eth[0].mac  passedUpPk:vector(packetBytes)  ETV
attr interpolationmode  none
attr source  packetSentToUpper
attr title  "packets passed to higher layer, vector(packetBytes)"
vector 67  Topo.client3.eth[0].mac  rxPkOk:vector(packetBytes)  ETV
attr interpolationmode  none
attr source  rxPkOk
attr title  "packets received OK, vector(packetBytes)"
vector 68  Topo.client3.eth[0].mac  passedUpPk:vector(packetBytes)  ETV
attr interpolationmode  none
attr source  packetSentToUpper
attr title  "packets passed to higher layer, vector(packetBytes)"
vector 93  Topo.client4.eth[0].mac  rxPkOk:vector(packetBytes)  ETV
attr interpolationmode  none
attr source  rxPkOk
attr title  "packets received OK, vector(packetBytes)"
vector 94  Topo.client4.eth[0].mac  passedUpPk:vector(packetBytes)  ETV
attr interpolationmode  none
attr source  packetSentToUpper
attr title  "packets passed to higher layer, vector(packetBytes)"
vector 119  Topo.server1.eth[0].mac  rxPkOk:vector(packetBytes)  ETV
attr interpolationmode  none
attr source  rxPkOk
attr title  "packets received OK, vector(packetBytes)"
vector 120  Topo.server1.eth[0].mac  passedUpPk:vector(packetBytes)  ETV
attr interpolationmode  none
attr source  packetSentToUpper
attr title  "packets passed to higher layer, vector(packetBytes)"
vector 145  Topo.server2.eth[0].mac  rxPkOk:vector(packetBytes)  ETV
attr interpolationmode  none
attr source  rxPkOk
attr title  "packets received OK, vector(packetBytes)"
vector 146  Topo.server2.eth[0].mac  passedUpPk:vector(packetBytes)  ETV
attr interpolationmode  none
attr source  packetSentToUpper
attr title  "packets passed to higher layer, vector(packetBytes)"
vector 171  Topo.server3.eth[0].mac  rxPkOk:vector(packetBytes)  ETV
attr interpolationmode  none
attr source  rxPkOk
attr title  "packets received OK, vector(packetBytes)"
vector 172  Topo.server3.eth[0].mac  passedUpPk:vector(packetBytes)  ETV
attr interpolationmode  none
attr source  packetSentToUpper
attr title  "packets passed to higher layer, vector(packetBytes)"
vector 50  Topo.client2.eth[0].encap  decapPk:vector(packetBytes)  ETV
attr interpolationmode  none
attr source  decapPk
attr title  "packets decapsulated, vector(packetBytes)"
vector 76  Topo.client3.eth[0].encap  decapPk:vector(packetBytes)  ETV
attr interpolationmode  none
attr source  decapPk
attr title  "packets decapsulated, vector(packetBytes)"
vector 102  Topo.client4.eth[0].encap  decapPk:vector(packetBytes)  ETV
attr interpolationmode  none
attr source  decapPk
attr title  "packets decapsulated, vector(packetBytes)"
vector 128  Topo.server1.eth[0].encap  decapPk:vector(packetBytes)  ETV
attr interpolationmode  none
attr source  decapPk
attr title  "packets decapsulated, vector(packetBytes)"
vector 154  Topo.server2.eth[0].encap  decapPk:vector(packetBytes)  ETV
attr interpolationmode  none
attr source  decapPk
attr title  "packets decapsulated, vector(packetBytes)"
vector 180  Topo.server3.eth[0].encap  decapPk:vector(packetBytes)  ETV
attr interpolationmode  none
attr source  decapPk
attr title  "packets decapsulated, vector(packetBytes)"
vector 114  Topo.server1.networkLayer.arp  sentReply:vector  ETV
attr title  "ARP replies sent, vector"
vector 127  Topo.server1.eth[0].encap  encapPk:vector(packetBytes)  ETV
attr interpolationmode  none
attr source  encapPk
attr title  "packets encapsulated, vector(packetBytes)"
vector 123  Topo.server1.eth[0].mac  rxPkFromHL:vector(packetBytes)  ETV
attr interpolationmode  none
attr source  rxPkFromHL
attr title  "packet bytes from higher layer, vector(packetBytes)"
vector 118  Topo.server1.eth[0].mac  txPk:vector(packetBytes)  ETV
attr interpolationmode  none
attr source  txPk
attr title  "packets transmitted, vector(packetBytes)"
vector 227  Topo.s1.etherMAC[4]  rxPkOk:vector(packetBytes)  ETV
attr interpolationmode  none
attr source  rxPkOk
attr title  "packets received OK, vector(packetBytes)"
vector 228  Topo.s1.etherMAC[4]  passedUpPk:vector(packetBytes)  ETV
attr interpolationmode  none
attr source  packetSentToUpper
attr title  "packets passed to higher layer, vector(packetBytes)"
vector 187  Topo.s1.etherMAC[0]  rxPkFromHL:vector(packetBytes)  ETV
attr interpolationmode  none
attr source  rxPkFromHL
attr title  "packet bytes from higher layer, vector(packetBytes)"
vector 182  Topo.s1.etherMAC[0]  txPk:vector(packetBytes)  ETV
attr interpolationmode  none
attr source  txPk
attr title  "packets transmitted, vector(packetBytes)"
vector 15  Topo.client1.eth[0].mac  rxPkOk:vector(packetBytes)  ETV
attr interpolationmode  none
attr source  rxPkOk
attr title  "packets received OK, vector(packetBytes)"
vector 16  Topo.client1.eth[0].mac  passedUpPk:vector(packetBytes)  ETV
attr interpolationmode  none
attr source  packetSentToUpper
attr title  "packets passed to higher layer, vector(packetBytes)"
vector 24  Topo.client1.eth[0].encap  decapPk:vector(packetBytes)  ETV
attr interpolationmode  none
attr source  decapPk
attr title  "packets decapsulated, vector(packetBytes)"
vector 109  Topo.server1.udp  rcvdPk:vector(packetBytes)  ETV
attr interpolationmode  none
attr source  rcvdPk
attr title  "packets received, vector(packetBytes)"
vector 110  Topo.server1.udp  passedUpPk:vector(count)  ETV
attr interpolationmode  none
attr title  "packets passed up, vector(count)"
vector 104  Topo.server1.udpApp[0]  rcvdPk:vector(packetBytes)  ETV
attr interpolationmode  none
attr source  rcvdPk
attr title  "packets received, vector(packetBytes)"
vector 105  Topo.server1.udpApp[0]  rcvdPk:vector(count)  ETV
attr interpolationmode  none
attr source  rcvdPk
attr title  "packets received, vector(count)"
vector 79  Topo.client4.udpApp[0]  sentPk:vector(packetBytes)  ETV
attr interpolationmode  none
attr source  sentPk
attr title  "packets sent, vector(packetBytes)"
vector 81  Topo.client4.udp  sentPk:vector(packetBytes)  ETV
attr interpolationmode  none
attr source  sentPk
attr title  "packets sent, vector(packetBytes)"
vector 82  Topo.client4.udp  sentPk:vector(count)  ETV
attr interpolationmode  none
attr source  sentPk
attr title  "packets sent, vector(count)"
vector 87  Topo.client4.networkLayer.arp  sentReq:vector  ETV
attr title  "ARP request sent, vector"
vector 101  Topo.client4.eth[0].encap  encapPk:vector(packetBytes)  ETV
attr interpolationmode  none
attr source  encapPk
attr title  "packets encapsulated, vector(packetBytes)"
vector 97  Topo.client4.eth[0].mac  rxPkFromHL:vector(packetBytes)  ETV
attr interpolationmode  none
attr source  rxPkFromHL
attr title  "packet bytes from higher layer, vector(packetBytes)"
vector 92  Topo.client4.eth[0].mac  txPk:vector(packetBytes)  ETV
attr interpolationmode  none
attr source  txPk
attr title  "packets transmitted, vector(packetBytes)"
vector 216  Topo.s1.etherMAC[3]  rxPkOk:vector(packetBytes)  ETV
attr interpolationmode  none
attr source  rxPkOk
attr title  "packets received OK, vector(packetBytes)"
vector 217  Topo.s1.etherMAC[3]  passedUpPk:vector(packetBytes)  ETV
attr interpolationmode  none
attr source  packetSentToUpper
attr title  "packets passed to higher layer, vector(packetBytes)"
vector 166  Topo.server3.networkLayer.arp  sentReply:vector  ETV
attr title  "ARP replies sent, vector"
vector 179  Topo.server3.eth[0].encap  encapPk:vector(packetBytes)  ETV
attr interpolationmode  none
attr source  encapPk
attr title  "packets encapsulated, vector(packetBytes)"
vector 175  Topo.server3.eth[0].mac  rxPkFromHL:vector(packetBytes)  ETV
attr interpolationmode  none
attr source  rxPkFromHL
attr title  "packet bytes from higher layer, vector(packetBytes)"
vector 170  Topo.server3.eth[0].mac  txPk:vector(packetBytes)  ETV
attr interpolationmode  none
attr source  txPk
attr title  "packets transmitted, vector(packetBytes)"
vector 249  Topo.s1.etherMAC[6]  rxPkOk:vector(packetBytes)  ETV
attr interpolationmode  none
attr source  rxPkOk
attr title  "packets received OK, vector(packetBytes)"
vector 250  Topo.s1.etherMAC[6]  passedUpPk:vector(packetBytes)  ETV
attr interpolationmode  none
attr source  packetSentToUpper
attr title  "packets passed to higher layer, vector(packetBytes)"
vector 161  Topo.server3.udp  rcvdPk:vector(packetBytes)  ETV
attr interpolationmode  none
attr source  rcvdPk
attr title  "packets received, vector(packetBytes)"
vector 162  Topo.server3.udp  passedUpPk:vector(count)  ETV
attr interpolationmode  none
attr title  "packets passed up, vector(count)"
vector 156  Topo.server3.udpApp[0]  rcvdPk:vector(packetBytes)  ETV
attr interpolationmode  none
attr source  rcvdPk
attr title  "packets received, vector(packetBytes)"
vector 157  Topo.server3.udpApp[0]  rcvdPk:vector(count)  ETV
attr interpolationmode  none
attr source  rcvdPk
attr title  "packets received, vector(count)"
vector 53  Topo.client3.udpApp[0]  sentPk:vector(packetBytes)  ETV
attr interpolationmode  none
attr source  sentPk
attr title  "packets sent, vector(packetBytes)"
vector 55  Topo.client3.udp  sentPk:vector(packetBytes)  ETV
attr interpolationmode  none
attr source  sentPk
attr title  "packets sent, vector(packetBytes)"
vector 56  Topo.client3.udp  sentPk:vector(count)  ETV
attr interpolationmode  none
attr source  sentPk
attr title  "packets sent, vector(count)"
vector 61  Topo.client3.networkLayer.arp  sentReq:vector  ETV
attr title  "ARP request sent, vector"
vector 75  Topo.client3.eth[0].encap  encapPk:vector(packetBytes)  ETV
attr interpolationmode  none
attr source  encapPk
attr title  "packets encapsulated, vector(packetBytes)"
vector 71  Topo.client3.eth[0].mac  rxPkFromHL:vector(packetBytes)  ETV
attr interpolationmode  none
attr source  rxPkFromHL
attr title  "packet bytes from higher layer, vector(packetBytes)"
vector 66  Topo.client3.eth[0].mac  txPk:vector(packetBytes)  ETV
attr interpolationmode  none
attr source  txPk
attr title  "packets transmitted, vector(packetBytes)"
vector 205  Topo.s1.etherMAC[2]  rxPkOk:vector(packetBytes)  ETV
attr interpolationmode  none
attr source  rxPkOk
attr title  "packets received OK, vector(packetBytes)"
vector 206  Topo.s1.etherMAC[2]  passedUpPk:vector(packetBytes)  ETV
attr interpolationmode  none
attr source  packetSentToUpper
attr title  "packets passed to higher layer, vector(packetBytes)"
vector 140  Topo.server2.networkLayer.arp  sentReply:vector  ETV
attr title  "ARP replies sent, vector"
vector 153  Topo.server2.eth[0].encap  encapPk:vector(packetBytes)  ETV
attr interpolationmode  none
attr source  encapPk
attr title  "packets encapsulated, vector(packetBytes)"
vector 149  Topo.server2.eth[0].mac  rxPkFromHL:vector(packetBytes)  ETV
attr interpolationmode  none
attr source  rxPkFromHL
attr title  "packet bytes from higher layer, vector(packetBytes)"
vector 144  Topo.server2.eth[0].mac  txPk:vector(packetBytes)  ETV
attr interpolationmode  none
attr source  txPk
attr title  "packets transmitted, vector(packetBytes)"
vector 238  Topo.s1.etherMAC[5]  rxPkOk:vector(packetBytes)  ETV
attr interpolationmode  none
attr source  rxPkOk
attr title  "packets received OK, vector(packetBytes)"
vector 239  Topo.s1.etherMAC[5]  passedUpPk:vector(packetBytes)  ETV
attr interpolationmode  none
attr source  packetSentToUpper
attr title  "packets passed to higher layer, vector(packetBytes)"
vector 135  Topo.server2.udp  rcvdPk:vector(packetBytes)  ETV
attr interpolationmode  none
attr source  rcvdPk
attr title  "packets received, vector(packetBytes)"
vector 136  Topo.server2.udp  passedUpPk:vector(count)  ETV
attr interpolationmode  none
attr title  "packets passed up, vector(count)"
vector 130  Topo.server2.udpApp[0]  rcvdPk:vector(packetBytes)  ETV
attr interpolationmode  none
attr source  rcvdPk
attr title  "packets received, vector(packetBytes)"
vector 131  Topo.server2.udpApp[0]  rcvdPk:vector(count)  ETV
attr interpolationmode  none
attr source  rcvdPk
attr title  "packets received, vector(count)"
vector 27  Topo.client2.udpApp[0]  sentPk:vector(packetBytes)  ETV
attr interpolationmode  none
attr source  sentPk
attr title  "packets sent, vector(packetBytes)"
vector 29  Topo.client2.udp  sentPk:vector(packetBytes)  ETV
attr interpolationmode  none
attr source  sentPk
attr title  "packets sent, vector(packetBytes)"
vector 30  Topo.client2.udp  sentPk:vector(count)  ETV
attr interpolationmode  none
attr source  sentPk
attr title  "packets sent, vector(count)"
vector 35  Topo.client2.networkLayer.arp  sentReq:vector  ETV
attr title  "ARP request sent, vector"
vector 49  Topo.client2.eth[0].encap  encapPk:vector(packetBytes)  ETV
attr interpolationmode  none
attr source  encapPk
attr title  "packets encapsulated, vector(packetBytes)"
vector 45  Topo.client2.eth[0].mac  rxPkFromHL:vector(packetBytes)  ETV
attr interpolationmode  none
attr source  rxPkFromHL
attr title  "packet bytes from higher layer, vector(packetBytes)"
vector 40  Topo.client2.eth[0].mac  txPk:vector(packetBytes)  ETV
attr interpolationmode  none
attr source  txPk
attr title  "packets transmitted, vector(packetBytes)"
vector 194  Topo.s1.etherMAC[1]  rxPkOk:vector(packetBytes)  ETV
attr interpolationmode  none
attr source  rxPkOk
attr title  "packets received OK, vector(packetBytes)"
vector 195  Topo.s1.etherMAC[1]  passedUpPk:vector(packetBytes)  ETV
attr interpolationmode  none
attr source  packetSentToUpper
attr title  "packets passed to higher layer, vector(packetBytes)"
vector 158  Topo.server3.udpApp[0]  rcvdAppPkt:vector  ETV
attr interpolationmode  none
attr source  rcvdAppPkt
attr title  "packets received during sec, vector"
vector 106  Topo.server1.udpApp[0]  rcvdAppPkt:vector  ETV
attr interpolationmode  none
attr source  rcvdAppPkt
attr title  "packets received during sec, vector"
vector 132  Topo.server2.udpApp[0]  rcvdAppPkt:vector  ETV
attr interpolationmode  none
attr source  rcvdAppPkt
attr title  "packets received during sec, vector"
vector 273  Topo.controller.entropy  entropy:vector  ETV
attr source  entropy
attr title  "Entropy Value, vector"
1	181	0.1	1250
1	635	0.2	1250
1	1114	0.3	1250
1	1593	0.4	1250
1	1644	0.5	1250
1	1673	0.6	1250
1	2201	0.7	1250
1	2228	0.8	1250
1	2280	0.9	1250
1	2332	1	1250
1	2383	1.1	1250
1	2412	1.2	1250
1	2513	1.3	1250
1	2540	1.4	1250
1	2592	1.5	1250
1	2644	1.6	1250
1	2695	1.7	1250
1	2724	1.8	1250
1	2825	1.9	1250
1	2852	2	1250
1	2904	2.1	1250
1	2956	2.2	1250
1	3007	2.3	1250
1	3036	2.4	1250
1	3137	2.5	1250
1	3164	2.6	1250
1	3216	2.7	1250
1	3268	2.8	1250
1	3319	2.9	1250
1	3348	3	1250
1	3449	3.1	1250
1	3476	3.2	1250
1	3528	3.3	1250
1	3580	3.4	1250
1	3631	3.5	1250
1	3660	3.6	1250
1	3761	3.7	1250
1	3788	3.8	1250
1	3840	3.9	1250
1	3892	4	1250
1	3943	4.1	1250
1	3972	4.2	1250
1	4073	4.3	1250
1	4100	4.4	1250
1	4152	4.5	1250
1	4204	4.6	1250
1	4255	4.7	1250
1	4284	4.8	1250
1	4385	4.9	1250
1	4412	5	1250
1	4464	5.1	1250
1	4516	5.2	1250
1	4567	5.3	1250
1	4596	5.4	1250
1	4697	5.5	1250
1	4724	5.6	1250
1	4776	5.7	1250
1	4828	5.8	1250
1	4879	5.9	1250
1	4908	6	1250
1	5009	6.1	1250
1	5036	6.2	1250
1	5088	6.3	1250
1	5140	6.4	1250
1	5191	6.5	1250
1	5220	6.6	1250
1	5321	6.7	1250
1	5348	6.8	1250
1	5400	6.9	1250
1	5452	7	1250
1	5503	7.1	1250
1	5532	7.2	1250
1	5633	7.3	1250
1	5660	7.4	1250
1	5712	7.5	1250
1	5764	7.6	1250
1	5815	7.7	1250
1	5844	7.8	1250
1	5945	7.9	1250
1	5972	8	1250
1	6024	8.1	1250
1	6076	8.2	1250
1	6127	8.3	1250
1	6156	8.4	1250
1	6257	8.5	1250
1	6284	8.6	1250
1	6336	8.7	1250
1	6388	8.8	1250
1	6439	8.9	1250
1	6468	9	1250
1	6569	9.1	1250
1	6596	9.2	1250
1	6648	9.3	1250
1	6700	9.4	1250
1	6751	9.5	1250
1	6780	9.6	1250
1	6881	9.7	1250
1	6908	9.8	1250
1	6960	9.9	1250
1	7012	10	1250
1	7063	10.1	1250
1	7092	10.2	1250
1	7193	10.3	1250
1	7220	10.4	1250
1	7272	10.5	1250
1	7324	10.6	1250
1	7375	10.7	1250
1	7404	10.8	1250
1	7505	10.9	1250
1	7532	11	1250
1	7584	11.1	1250
1	7636	11.2	1250
1	7687	11.3	1250
1	7716	11.4	1250
1	7817	11.5	1250
1	7844	11.6	1250
1	7896	11.7	1250
1	7948	11.8	1250
1	7999	11.9	1250
1	8028	12	1250
1	8129	12.1	1250
1	8156	12.2	1250
1	8208	12.3	1250
1	8260	12.4	1250
1	8311	12.5	1250
1	8340	12.6	1250
1	8441	12.7	1250
1	8468	12.8	1250
1	8520	12.9	1250
1	8572	13	1250
1	8623	13.1	1250
1	8652	13.2	1250
1	8753	13.3	1250
1	8780	13.4	1250
1	8832	13.5	1250
1	8884	13.6	1250
1	8935	13.7	1250
1	8964	13.8	1250
1	9065	13.9	1250
1	9092	14	1250
1	9144	14.1	1250
1	9196	14.2	1250
1	9247	14.3	1250
1	9276	14.4	1250
1	9377	14.5	1250
1	9404	14.6	1250
1	9456	14.7	1250
1	9508	14.8	1250
1	9559	14.9	1250
1	9588	15	1250
1	9689	15.1	1250
1	9716	15.2	1250
1	9768	15.3	1250
1	9820	15.4	1250
1	9871	15.5	1250
1	9900	15.6	1250
1	10001	15.7	1250
1	10028	15.8	1250
1	10080	15.9	1250
1	10132	16	1250
1	10183	16.1	1250
1	10212	16.2	1250
1	10313	16.3	1250
1	10340	16.4	1250
1	10392	16.5	1250
1	10444	16.6	1250
1	10495	16.7	1250
1	10524	16.8	1250
1	10625	16.9	1250
1	10652	17	1250
1	10704	17.1	1250
1	10756	17.2	1250
1	10807	17.3	1250
1	10836	17.4	1250
1	10937	17.5	1250
1	10964	17.6	1250
1	11016	17.7	1250
1	11068	17.8	1250
1	11119	17.9	1250
1	11148	18	1250
1	11249	18.1	1250
1	11276	18.2	1250
1	11328	18.3	1250
1	11380	18.4	1250
1	11431	18.5	1250
1	11460	18.6	1250
1	11561	18.7	1250
1	11588	18.8	1250
1	11640	18.9	1250
1	11692	19	1250
1	11743	19.1	1250
1	11772	19.2	1250
1	11873	19.3	1250
1	11900	19.4	1250
1	11952	19.5	1250
1	12004	19.6	1250
1	12055	19.7	1250
1	12084	19.8	1250
1	12185	19.9	1250
1	12212	20	1250
1	12264	20.1	1250
1	12316	20.2	1250
1	12367	20.3	1250
1	12396	20.4	1250
1	12497	20.5	1250
1	12524	20.6	1250
1	12576	20.7	1250
1	12628	20.8	1250
1	12679	20.9	1250
1	12708	21	1250
1	12809	21.1	1250
1	12836	21.2	1250
1	12888	21.3	1250
1	12940	21.4	1250
1	12991	21.5	1250
1	13020	21.6	1250
1	13121	21.7	1250
1	13148	21.8	1250
1	13200	21.9	1250
1	13252	22	1250
1	13303	22.1	1250
1	13332	22.2	1250
1	13433	22.3	1250
1	13460	22.4	1250
1	13512	22.5	1250
1	13564	22.6	1250
1	13615	22.7	1250
1	13644	22.8	1250
1	13745	22.9	1250
1	13772	23	1250
1	13824	23.1	1250
1	13876	23.2	1250
1	13927	23.3	1250
1	13956	23.4	1250
1	14057	23.5	1250
1	14084	23.6	1250
1	14136	23.7	1250
1	14188	23.8	1250
1	14239	23.9	1250
1	14268	24	1250
1	14369	24.1	1250
1	14396	24.2	1250
1	14448	24.3	1250
1	14500	24.4	1250
1	14551	24.5	1250
1	14580	24.6	1250
1	14681	24.7	1250
1	14708	24.8	1250
1	14760	24.9	1250
1	14812	25	1250
1	14863	25.1	1250
1	14892	25.2	1250
1	14993	25.3	1250
1	15020	25.4	1250
1	15072	25.5	1250
1	15124	25.6	1250
1	15175	25.7	1250
1	15204	25.8	1250
1	15305	25.9	1250
1	15332	26	1250
1	15384	26.1	1250
1	15436	26.2	1250
1	15487	26.3	1250
1	15516	26.4	1250
1	15617	26.5	1250
1	15644	26.6	1250
1	15696	26.7	1250
1	15748	26.8	1250
1	15799	26.9	1250
1	15828	27	1250
1	15929	27.1	1250
1	15956	27.2	1250
1	16008	27.3	1250
1	16060	27.4	1250
1	16111	27.5	1250
1	16140	27.6	1250
1	16241	27.7	1250
1	16268	27.8	1250
1	16320	27.9	1250
1	16372	28	1250
1	16423	28.1	1250
1	16452	28.2	1250
1	16553	28.3	1250
1	16580	28.4	1250
1	16632	28.5	1250
1	16684	28.6	1250
1	16735	28.7	1250
1	16764	28.8	1250
1	16865	28.9	1250
1	16892	29	1250
1	16944	29.1	1250
1	16996	29.2	1250
1	17047	29.3	1250
1	17076	29.4	1250
1	17177	29.5	1250
1	17204	29.6	1250
1	17256	29.7	1250
1	17308	29.8	1250
1	17359	29.9	1250
1	17389	30	1250
1	17551	30.1	1250
1	17642	30.2	1250
1	17758	30.3	1250
1	17874	30.4	1250
1	18120	30.5	1250
1	18149	30.6	1250
1	18509	30.7	1250
1	18536	30.8	1250
1	18588	30.9	1250
1	18640	31	1250
1	18691	31.1	1250
1	18720	31.2	1250
1	19016	31.3	1250
1	19043	31.4	1250
1	19095	31.5	1250
1	19147	31.6	1250
1	19198	31.7	1250
1	19227	31.8	1250
1	19328	31.9	1250
1	19355	32	1250
1	19407	32.1	1250
1	19459	32.2	1250
1	19510	32.3	1250
1	19539	32.4	1250
1	19640	32.5	1250
1	19667	32.6	1250
1	19719	32.7	1250
1	19771	32.8	1250
1	19822	32.9	1250
1	19851	33	1250
1	19952	33.1	1250
1	19979	33.2	1250
1	20031	33.3	1250
1	20083	33.4	1250
1	20134	33.5	1250
1	20163	33.6	1250
1	20264	33.7	1250
1	20291	33.8	1250
1	20343	33.9	1250
1	20395	34	1250
1	20446	34.1	1250
1	20475	34.2	1250
1	20576	34.3	1250
1	20603	34.4	1250
1	20655	34.5	1250
1	20707	34.6	1250
1	20758	34.7	1250
1	20787	34.8	1250
1	20888	34.9	1250
1	20915	35	1250
1	20967	35.1	1250
1	21019	35.2	1250
1	21070	35.3	1250
1	21099	35.4	1250
1	21200	35.5	1250
1	21227	35.6	1250
1	21279	35.7	1250
1	21331	35.8	1250
1	21382	35.9	1250
1	21411	36	1250
1	21512	36.1	1250
1	21539	36.2	1250
1	21591	36.3	1250
1	21643	36.4	1250
1	21694	36.5	1250
1	21723	36.6	1250
1	21824	36.7	1250
1	21851	36.8	1250
1	21903	36.9	1250
1	21955	37	1250
1	22006	37.1	1250
1	22035	37.2	1250
1	22136	37.3	1250
1	22163	37.4	1250
1	22215	37.5	1250
1	22267	37.6	1250
1	22318	37.7	1250
1	22347	37.8	1250
1	22448	37.9	1250
1	22475	38	1250
1	22527	38.1	1250
1	22579	38.2	1250
1	22630	38.3	1250
1	22659	38.4	1250
1	22760	38.5	1250
1	22787	38.6	1250
1	22839	38.7	1250
1	22891	38.8	1250
1	22942	38.9	1250
1	22971	39	1250
1	23072	39.1	1250
1	23099	39.2	1250
1	23151	39.3	1250
1	23203	39.4	1250
1	23254	39.5	1250
1	23283	39.6	1250
1	23384	39.7	1250
1	23411	39.8	1250
1	23463	39.9	1250
1	23515	40	1250
1	23566	40.1	1250
1	23595	40.2	1250
1	23696	40.3	1250
1	23723	40.4	1250
1	23775	40.5	1250
1	23827	40.6	1250
1	23878	40.7	1250
1	23907	40.8	1250
1	24008	40.9	1250
1	24035	41	1250
1	24087	41.1	1250
1	24139	41.2	1250
1	24190	41.3	1250
1	24219	41.4	1250
1	24320	41.5	1250
1	24347	41.6	1250
1	24399	41.7	1250
1	24451	41.8	1250
1	24502	41.9	1250
1	24531	42	1250
1	24632	42.1	1250
1	24659	42.2	1250
1	24711	42.3	1250
1	24763	42.4	1250
1	24814	42.5	1250
1	24843	42.6	1250
1	24944	42.7	1250
1	24971	42.8	1250
1	25023	42.9	1250
1	25075	43	1250
1	25126	43.1	1250
1	25155	43.2	1250
1	25256	43.3	1250
1	25283	43.4	1250
1	25335	43.5	1250
1	25387	43.6	1250
1	25438	43.7	1250
1	25467	43.8	1250
1	25568	43.9	1250
1	25595	44	1250
1	25647	44.1	1250
1	25699	44.2	1250
1	25750	44.3	1250
1	25779	44.4	1250
1	25880	44.5	1250
1	25907	44.6	1250
1	25959	44.7	1250
1	26011	44.8	1250
1	26062	44.9	1250
1	26091	45	1250
1	26192	45.1	1250
1	26219	45.2	1250
1	26271	45.3	1250
1	26323	45.4	1250
1	26374	45.5	1250
1	26403	45.6	1250
1	26504	45.7	1250
1	26531	45.8	1250
1	26583	45.9	1250
1	26635	46	1250
1	26686	46.1	1250
1	26715	46.2	1250
1	26816	46.3	1250
1	26843	46.4	1250
1	26895	46.5	1250
1	26947	46.6	1250
1	26998	46.7	1250
1	27027	46.8	1250
1	27128	46.9	1250
1	27155	47	1250
1	27207	47.1	1250
1	27259	47.2	1250
1	27310	47.3	1250