file 2456759 1481113052                                         
version 2
run simple_attack-0-20161207-13:17:27-24819
attr configname simple_attack
attr datetime 20161207-13:17:27
attr experiment simple_attack
attr inifile omnetpp.ini
attr iterationvars ""
attr iterationvars2 $repetition=0
attr measurement ""
attr network Topo
attr processid 24819
attr repetition 0
attr replication #0
attr resultdir results
attr runnumber 0
attr seedset 0

vector 343  Topo.s1.tcp  tcpRcvQueueBytes  ETV
vector 330  Topo.s1.tcp  "advertised window"  ETV
vector 329  Topo.s1.tcp  "receive window"  ETV
vector 332  Topo.s1.tcp  "sent ack"  ETV
vector 273  Topo.s1.networkLayer.arp  sentReq:vector  ETV
attr title  "ARP request sent, vector"
vector 284  Topo.s1.eth[0].encap  encapPk:vector(packetBytes)  ETV
attr interpolationmode  none
attr source  encapPk
attr title  "packets encapsulated, vector(packetBytes)"
vector 280  Topo.s1.eth[0].mac  rxPkFromHL:vector(packetBytes)  ETV
attr interpolationmode  none
attr source  rxPkFromHL
attr title  "packet bytes from higher layer, vector(packetBytes)"
vector 275  Topo.s1.eth[0].mac  txPk:vector(packetBytes)  ETV
attr interpolationmode  none
attr source  txPk
attr title  "packets transmitted, vector(packetBytes)"
vector 293  Topo.controller.eth[0].mac  rxPkOk:vector(packetBytes)  ETV
attr interpolationmode  none
attr source  rxPkOk
attr title  "packets received OK, vector(packetBytes)"
vector 294  Topo.controller.eth[0].mac  passedUpPk:vector(packetBytes)  ETV
attr interpolationmode  none
attr source  packetSentToUpper
attr title  "packets passed to higher layer, vector(packetBytes)"
vector 302  Topo.controller.eth[0].encap  decapPk:vector(packetBytes)  ETV
attr interpolationmode  none
attr source  decapPk
attr title  "packets decapsulated, vector(packetBytes)"
vector 288  Topo.controller.networkLayer.arp  sentReply:vector  ETV
attr title  "ARP replies sent, vector"
vector 301  Topo.controller.eth[0].encap  encapPk:vector(packetBytes)  ETV
attr interpolationmode  none
attr source  encapPk
attr title  "packets encapsulated, vector(packetBytes)"
vector 297  Topo.controller.eth[0].mac  rxPkFromHL:vector(packetBytes)  ETV
attr interpolationmode  none
attr source  rxPkFromHL
attr title  "packet bytes from higher layer, vector(packetBytes)"
vector 292  Topo.controller.eth[0].mac  txPk:vector(packetBytes)  ETV
attr interpolationmode  none
attr source  txPk
attr title  "packets transmitted, vector(packetBytes)"
vector 276  Topo.s1.eth[0].mac  rxPkOk:vector(packetBytes)  ETV
attr interpolationmode  none
attr source  rxPkOk
attr title  "packets received OK, vector(packetBytes)"
vector 277  Topo.s1.eth[0].mac  passedUpPk:vector(packetBytes)  ETV
attr interpolationmode  none
attr source  packetSentToUpper
attr title  "packets passed to higher layer, vector(packetBytes)"
vector 285  Topo.s1.eth[0].encap  decapPk:vector(packetBytes)  ETV
attr interpolationmode  none
attr source  decapPk
attr title  "packets decapsulated, vector(packetBytes)"
vector 309  Topo.controller.tcp  "rcvd seq"  ETV
vector 310  Topo.controller.tcp  "rcvd ack"  ETV
vector 306  Topo.controller.tcp  "advertised window"  ETV
vector 304  Topo.controller.tcp  "send window"  ETV
vector 319  Topo.controller.tcp  tcpRcvQueueBytes  ETV
vector 305  Topo.controller.tcp  "receive window"  ETV
vector 308  Topo.controller.tcp  "sent ack"  ETV
vector 333  Topo.s1.tcp  "rcvd seq"  ETV
vector 334  Topo.s1.tcp  "rcvd ack"  ETV
vector 328  Topo.s1.tcp  "send window"  ETV
vector 311  Topo.controller.tcp  "unacked bytes"  ETV
vector 307  Topo.controller.tcp  "sent seq"  ETV
vector 336  Topo.s1.tcp  "rcvd dupAcks"  ETV
vector 331  Topo.s1.tcp  "sent seq"  ETV
vector 335  Topo.s1.tcp  "unacked bytes"  ETV
vector 323  Topo.controller.tcp  "measured RTT"  ETV
vector 324  Topo.controller.tcp  "smoothed RTT"  ETV
vector 325  Topo.controller.tcp  RTTVAR  ETV
vector 326  Topo.controller.tcp  RTO  ETV
vector 321  Topo.controller.tcp  cwnd  ETV
vector 312  Topo.controller.tcp  "rcvd dupAcks"  ETV
vector 347  Topo.s1.tcp  "measured RTT"  ETV
vector 348  Topo.s1.tcp  "smoothed RTT"  ETV
vector 349  Topo.s1.tcp  RTTVAR  ETV
vector 350  Topo.s1.tcp  RTO  ETV
vector 345  Topo.s1.tcp  cwnd  ETV
vector 1  Topo.client1.udpApp[0]  sentPk:vector(packetBytes)  ETV
attr interpolationmode  none
attr source  sentPk
attr title  "packets sent, vector(packetBytes)"
vector 3  Topo.client1.udp  sentPk:vector(packetBytes)  ETV
attr interpolationmode  none
attr source  sentPk
attr title  "packets sent, vector(packetBytes)"
vector 4  Topo.client1.udp  sentPk:vector(count)  ETV
attr interpolationmode  none
attr source  sentPk
attr title  "packets sent, vector(count)"
vector 11  Topo.client1.networkLayer.arp  sentReq:vector  ETV
attr title  "ARP request sent, vector"
vector 25  Topo.client1.eth[0].encap  encapPk:vector(packetBytes)  ETV
attr interpolationmode  none
attr source  encapPk
attr title  "packets encapsulated, vector(packetBytes)"
vector 21  Topo.client1.eth[0].mac  rxPkFromHL:vector(packetBytes)  ETV
attr interpolationmode  none
attr source  rxPkFromHL
attr title  "packet bytes from higher layer, vector(packetBytes)"
vector 16  Topo.client1.eth[0].mac  txPk:vector(packetBytes)  ETV
attr interpolationmode  none
attr source  txPk
attr title  "packets transmitted, vector(packetBytes)"
vector 197  Topo.s1.etherMAC[0]  rxPkOk:vector(packetBytes)  ETV
attr interpolationmode  none
attr source  rxPkOk
attr title  "packets received OK, vector(packetBytes)"
vector 198  Topo.s1.etherMAC[0]  passedUpPk:vector(packetBytes)  ETV
attr interpolationmode  none
attr source  packetSentToUpper
attr title  "packets passed to higher layer, vector(packetBytes)"
vector 212  Topo.s1.etherMAC[1]  rxPkFromHL:vector(packetBytes)  ETV
attr interpolationmode  none
attr source  rxPkFromHL
attr title  "packet bytes from higher layer, vector(packetBytes)"
vector 223  Topo.s1.etherMAC[2]  rxPkFromHL:vector(packetBytes)  ETV
attr interpolationmode  none
attr source  rxPkFromHL
attr title  "packet bytes from higher layer, vector(packetBytes)"
vector 234  Topo.s1.etherMAC[3]  rxPkFromHL:vector(packetBytes)  ETV
attr interpolationmode  none
attr source  rxPkFromHL
attr title  "packet bytes from higher layer, vector(packetBytes)"
vector 245  Topo.s1.etherMAC[4]  rxPkFromHL:vector(packetBytes)  ETV
attr interpolationmode  none
attr source  rxPkFromHL
attr title  "packet bytes from higher layer, vector(packetBytes)"
vector 256  Topo.s1.etherMAC[5]  rxPkFromHL:vector(packetBytes)  ETV
attr interpolationmode  none
attr source  rxPkFromHL
attr title  "packet bytes from higher layer, vector(packetBytes)"
vector 267  Topo.s1.etherMAC[6]  rxPkFromHL:vector(packetBytes)  ETV
attr interpolationmode  none
attr source  rxPkFromHL
attr title  "packet bytes from higher layer, vector(packetBytes)"
vector 207  Topo.s1.etherMAC[1]  txPk:vector(packetBytes)  ETV
attr interpolationmode  none
attr source  txPk
attr title  "packets transmitted, vector(packetBytes)"
vector 218  Topo.s1.etherMAC[2]  txPk:vector(packetBytes)  ETV
attr interpolationmode  none
attr source  txPk
attr title  "packets transmitted, vector(packetBytes)"
vector 229  Topo.s1.etherMAC[3]  txPk:vector(packetBytes)  ETV
attr interpolationmode  none
attr source  txPk
attr title  "packets transmitted, vector(packetBytes)"
vector 240  Topo.s1.etherMAC[4]  txPk:vector(packetBytes)  ETV
attr interpolationmode  none
attr source  txPk
attr title  "packets transmitted, vector(packetBytes)"
vector 251  Topo.s1.etherMAC[5]  txPk:vector(packetBytes)  ETV
attr interpolationmode  none
attr source  txPk
attr title  "packets transmitted, vector(packetBytes)"
vector 262  Topo.s1.etherMAC[6]  txPk:vector(packetBytes)  ETV
attr interpolationmode  none
attr source  txPk
attr title  "packets transmitted, vector(packetBytes)"
vector 45  Topo.client2.eth[0].mac  rxPkOk:vector(packetBytes)  ETV
attr interpolationmode  none
attr source  rxPkOk
attr title  "packets received OK, vector(packetBytes)"
vector 46  Topo.client2.eth[0].mac  passedUpPk:vector(packetBytes)  ETV
attr interpolationmode  none
attr source  packetSentToUpper
attr title  "packets passed to higher layer, vector(packetBytes)"
vector 73  Topo.client3.eth[0].mac  rxPkOk:vector(packetBytes)  ETV
attr interpolationmode  none
attr source  rxPkOk
attr title  "packets received OK, vector(packetBytes)"
vector 74  Topo.client3.eth[0].mac  passedUpPk:vector(packetBytes)  ETV
attr interpolationmode  none
attr source  packetSentToUpper
attr title  "packets passed to higher layer, vector(packetBytes)"
vector 101  Topo.client4.eth[0].mac  rxPkOk:vector(packetBytes)  ETV
attr interpolationmode  none
attr source  rxPkOk
attr title  "packets received OK, vector(packetBytes)"
vector 102  Topo.client4.eth[0].mac  passedUpPk:vector(packetBytes)  ETV
attr interpolationmode  none
attr source  packetSentToUpper
attr title  "packets passed to higher layer, vector(packetBytes)"
vector 129  Topo.server1.eth[0].mac  rxPkOk:vector(packetBytes)  ETV
attr interpolationmode  none
attr source  rxPkOk
attr title  "packets received OK, vector(packetBytes)"
vector 130  Topo.server1.eth[0].mac  passedUpPk:vector(packetBytes)  ETV
attr interpolationmode  none
attr source  packetSentToUpper
attr title  "packets passed to higher layer, vector(packetBytes)"
vector 157  Topo.server2.eth[0].mac  rxPkOk:vector(packetBytes)  ETV
attr interpolationmode  none
attr source  rxPkOk
attr title  "packets received OK, vector(packetBytes)"
vector 158  Topo.server2.eth[0].mac  passedUpPk:vector(packetBytes)  ETV
attr interpolationmode  none
attr source  packetSentToUpper
attr title  "packets passed to higher layer, vector(packetBytes)"
vector 185  Topo.server3.eth[0].mac  rxPkOk:vector(packetBytes)  ETV
attr interpolationmode  none
attr source  rxPkOk
attr title  "packets received OK, vector(packetBytes)"
vector 186  Topo.server3.eth[0].mac  passedUpPk:vector(packetBytes)  ETV
attr interpolationmode  none
attr source  packetSentToUpper
attr title  "packets passed to higher layer, vector(packetBytes)"
vector 54  Topo.client2.eth[0].encap  decapPk:vector(packetBytes)  ETV
attr interpolationmode  none
attr source  decapPk
attr title  "packets decapsulated, vector(packetBytes)"
vector 82  Topo.client3.eth[0].encap  decapPk:vector(packetBytes)  ETV
attr interpolationmode  none
attr source  decapPk
attr title  "packets decapsulated, vector(packetBytes)"
vector 110  Topo.client4.eth[0].encap  decapPk:vector(packetBytes)  ETV
attr interpolationmode  none
attr source  decapPk
attr title  "packets decapsulated, vector(packetBytes)"
vector 138  Topo.server1.eth[0].encap  decapPk:vector(packetBytes)  ETV
attr interpolationmode  none
attr source  decapPk
attr title  "packets decapsulated, vector(packetBytes)"
vector 166  Topo.server2.eth[0].encap  decapPk:vector(packetBytes)  ETV
attr interpolationmode  none
attr source  decapPk
attr title  "packets decapsulated, vector(packetBytes)"
vector 194  Topo.server3.eth[0].encap  decapPk:vector(packetBytes)  ETV
attr interpolationmode  none
attr source  decapPk
attr title  "packets decapsulated, vector(packetBytes)"
vector 124  Topo.server1.networkLayer.arp  sentReply:vector  ETV
attr title  "ARP replies sent, vector"
vector 137  Topo.server1.eth[0].encap  encapPk:vector(packetBytes)  ETV
attr interpolationmode  none
attr source  encapPk
attr title  "packets encapsulated, vector(packetBytes)"
vector 133  Topo.server1.eth[0].mac  rxPkFromHL:vector(packetBytes)  ETV
attr interpolationmode  none
attr source  rxPkFromHL
attr title  "packet bytes from higher layer, vector(packetBytes)"
vector 128  Topo.server1.eth[0].mac  txPk:vector(packetBytes)  ETV
attr interpolationmode  none
attr source  txPk
attr title  "packets transmitted, vector(packetBytes)"
vector 241  Topo.s1.etherMAC[4]  rxPkOk:vector(packetBytes)  ETV
attr interpolationmode  none
attr source  rxPkOk
attr title  "packets received OK, vector(packetBytes)"
vector 242  Topo.s1.etherMAC[4]  passedUpPk:vector(packetBytes)  ETV
attr interpolationmode  none
attr source  packetSentToUpper
attr title  "packets passed to higher layer, vector(packetBytes)"
vector 201  Topo.s1.etherMAC[0]  rxPkFromHL:vector(packetBytes)  ETV
attr interpolationmode  none
attr source  rxPkFromHL
attr title  "packet bytes from higher layer, vector(packetBytes)"
vector 196  Topo.s1.etherMAC[0]  txPk:vector(packetBytes)  ETV
attr interpolationmode  none
attr source  txPk
attr title  "packets transmitted, vector(packetBytes)"
vector 17  Topo.client1.eth[0].mac  rxPkOk:vector(packetBytes)  ETV
attr interpolationmode  none
attr source  rxPkOk
attr title  "packets received OK, vector(packetBytes)"
vector 18  Topo.client1.eth[0].mac  passedUpPk:vector(packetBytes)  ETV
attr interpolationmode  none
attr source  packetSentToUpper
attr title  "packets passed to higher layer, vector(packetBytes)"
vector 26  Topo.client1.eth[0].encap  decapPk:vector(packetBytes)  ETV
attr interpolationmode  none
attr source  decapPk
attr title  "packets decapsulated, vector(packetBytes)"
vector 117  Topo.server1.udp  rcvdPk:vector(packetBytes)  ETV
attr interpolationmode  none
attr source  rcvdPk
attr title  "packets received, vector(packetBytes)"
vector 122  Topo.server1.udp  rcvdPkLifetime:vector  ETV
attr interpolationmode  none
attr source  messageAge(rcvdPk)
attr title  "received packet lifetime, vector"
attr unit  s
vector 121  Topo.server1.udp  delay:vector  ETV
attr interpolationmode  none
attr source  delay
attr title  "delay, vector"
vector 118  Topo.server1.udp  passedUpPk:vector(count)  ETV
attr interpolationmode  none
attr title  "packets passed up, vector(count)"
vector 112  Topo.server1.udpApp[0]  rcvdPk:vector(packetBytes)  ETV
attr interpolationmode  none
attr source  rcvdPk
attr title  "packets received, vector(packetBytes)"
vector 113  Topo.server1.udpApp[0]  rcvdPk:vector(count)  ETV
attr interpolationmode  none
attr source  rcvdPk
attr title  "packets received, vector(count)"
vector 85  Topo.client4.udpApp[0]  sentPk:vector(packetBytes)  ETV
attr interpolationmode  none
attr source  sentPk
attr title  "packets sent, vector(packetBytes)"
vector 87  Topo.client4.udp  sentPk:vector(packetBytes)  ETV
attr interpolationmode  none
attr source  sentPk
attr title  "packets sent, vector(packetBytes)"
vector 88  Topo.client4.udp  sentPk:vector(count)  ETV
attr interpolationmode  none
attr source  sentPk
attr title  "packets sent, vector(count)"
vector 95  Topo.client4.networkLayer.arp  sentReq:vector  ETV
attr title  "ARP request sent, vector"
vector 109  Topo.client4.eth[0].encap  encapPk:vector(packetBytes)  ETV
attr interpolationmode  none
attr source  encapPk
attr title  "packets encapsulated, vector(packetBytes)"
vector 105  Topo.client4.eth[0].mac  rxPkFromHL:vector(packetBytes)  ETV
attr interpolationmode  none
attr source  rxPkFromHL
attr title  "packet bytes from higher layer, vector(packetBytes)"
vector 100  Topo.client4.eth[0].mac  txPk:vector(packetBytes)  ETV
attr interpolationmode  none
attr source  txPk
attr title  "packets transmitted, vector(packetBytes)"
vector 230  Topo.s1.etherMAC[3]  rxPkOk:vector(packetBytes)  ETV
attr interpolationmode  none
attr source  rxPkOk
attr title  "packets received OK, vector(packetBytes)"
vector 231  Topo.s1.etherMAC[3]  passedUpPk:vector(packetBytes)  ETV
attr interpolationmode  none
attr source  packetSentToUpper
attr title  "packets passed to higher layer, vector(packetBytes)"
vector 180  Topo.server3.networkLayer.arp  sentReply:vector  ETV
attr title  "ARP replies sent, vector"
vector 193  Topo.server3.eth[0].encap  encapPk:vector(packetBytes)  ETV
attr interpolationmode  none
attr source  encapPk
attr title  "packets encapsulated, vector(packetBytes)"
vector 189  Topo.server3.eth[0].mac  rxPkFromHL:vector(packetBytes)  ETV
attr interpolationmode  none
attr source  rxPkFromHL
attr title  "packet bytes from higher layer, vector(packetBytes)"
vector 184  Topo.server3.eth[0].mac  txPk:vector(packetBytes)  ETV
attr interpolationmode  none
attr source  txPk
attr title  "packets transmitted, vector(packetBytes)"
vector 263  Topo.s1.etherMAC[6]  rxPkOk:vector(packetBytes)  ETV
attr interpolationmode  none
attr source  rxPkOk
attr title  "packets received OK, vector(packetBytes)"
vector 264  Topo.s1.etherMAC[6]  passedUpPk:vector(packetBytes)  ETV
attr interpolationmode  none
attr source  packetSentToUpper
attr title  "packets passed to higher layer, vector(packetBytes)"
vector 173  Topo.server3.udp  rcvdPk:vector(packetBytes)  ETV
attr interpolationmode  none
attr source  rcvdPk
attr title  "packets received, vector(packetBytes)"
vector 178  Topo.server3.udp  rcvdPkLifetime:vector  ETV
attr interpolationmode  none
attr source  messageAge(rcvdPk)
attr title  "received packet lifetime, vector"
attr unit  s
vector 177  Topo.server3.udp  delay:vector  ETV
attr interpolationmode  none
attr source  delay
attr title  "delay, vector"
vector 174  Topo.server3.udp  passedUpPk:vector(count)  ETV
attr interpolationmode  none
attr title  "packets passed up, vector(count)"
vector 168  Topo.server3.udpApp[0]  rcvdPk:vector(packetBytes)  ETV
attr interpolationmode  none
attr source  rcvdPk
attr title  "packets received, vector(packetBytes)"
vector 169  Topo.server3.udpApp[0]  rcvdPk:vector(count)  ETV
attr interpolationmode  none
attr source  rcvdPk
attr title  "packets received, vector(count)"
vector 29  Topo.client2.udpApp[0]  sentPk:vector(packetBytes)  ETV
attr interpolationmode  none
attr source  sentPk
attr title  "packets sent, vector(packetBytes)"
vector 31  Topo.client2.udp  sentPk:vector(packetBytes)  ETV
attr interpolationmode  none
attr source  sentPk
attr title  "packets sent, vector(packetBytes)"
vector 32  Topo.client2.udp  sentPk:vector(count)  ETV
attr interpolationmode  none
attr source  sentPk
attr title  "packets sent, vector(count)"
vector 39  Topo.client2.networkLayer.arp  sentReq:vector  ETV
attr title  "ARP request sent, vector"
vector 53  Topo.client2.eth[0].encap  encapPk:vector(packetBytes)  ETV
attr interpolationmode  none
attr source  encapPk
attr title  "packets encapsulated, vector(packetBytes)"
vector 49  Topo.client2.eth[0].mac  rxPkFromHL:vector(packetBytes)  ETV
attr interpolationmode  none
attr source  rxPkFromHL
attr title  "packet bytes from higher layer, vector(packetBytes)"
vector 44  Topo.client2.eth[0].mac  txPk:vector(packetBytes)  ETV
attr interpolationmode  none
attr source  txPk
attr title  "packets transmitted, vector(packetBytes)"
vector 208  Topo.s1.etherMAC[1]  rxPkOk:vector(packetBytes)  ETV
attr interpolationmode  none
attr source  rxPkOk
attr title  "packets received OK, vector(packetBytes)"
vector 209  Topo.s1.etherMAC[1]  passedUpPk:vector(packetBytes)  ETV
attr interpolationmode  none
attr source  packetSentToUpper
attr title  "packets passed to higher layer, vector(packetBytes)"
vector 152  Topo.server2.networkLayer.arp  sentReply:vector  ETV
attr title  "ARP replies sent, vector"
vector 165  Topo.server2.eth[0].encap  encapPk:vector(packetBytes)  ETV
attr interpolationmode  none
attr source  encapPk
attr title  "packets encapsulated, vector(packetBytes)"
vector 161  Topo.server2.eth[0].mac  rxPkFromHL:vector(packetBytes)  ETV
attr interpolationmode  none
attr source  rxPkFromHL
attr title  "packet bytes from higher layer, vector(packetBytes)"
vector 156  Topo.server2.eth[0].mac  txPk:vector(packetBytes)  ETV
attr interpolationmode  none
attr source  txPk
attr title  "packets transmitted, vector(packetBytes)"
vector 252  Topo.s1.etherMAC[5]  rxPkOk:vector(packetBytes)  ETV
attr interpolationmode  none
attr source  rxPkOk
attr title  "packets received OK, vector(packetBytes)"
vector 253  Topo.s1.etherMAC[5]  passedUpPk:vector(packetBytes)  ETV
attr interpolationmode  none
attr source  packetSentToUpper
attr title  "packets passed to higher layer, vector(packetBytes)"
vector 145  Topo.server2.udp  rcvdPk:vector(packetBytes)  ETV
attr interpolationmode  none
attr source  rcvdPk
attr title  "packets received, vector(packetBytes)"
vector 150  Topo.server2.udp  rcvdPkLifetime:vector  ETV
attr interpolationmode  none
attr source  messageAge(rcvdPk)
attr title  "received packet lifetime, vector"
attr unit  s
vector 149  Topo.server2.udp  delay:vector  ETV
attr interpolationmode  none
attr source  delay
attr title  "delay, vector"
vector 146  Topo.server2.udp  passedUpPk:vector(count)  ETV
attr interpolationmode  none
attr title  "packets passed up, vector(count)"
vector 140  Topo.server2.udpApp[0]  rcvdPk:vector(packetBytes)  ETV
attr interpolationmode  none
attr source  rcvdPk
attr title  "packets received, vector(packetBytes)"
vector 141  Topo.server2.udpApp[0]  rcvdPk:vector(count)  ETV
attr interpolationmode  none
attr source  rcvdPk
attr title  "packets received, vector(count)"
vector 170  Topo.server3.udpApp[0]  rcvdAppPkt:vector  ETV
attr interpolationmode  none
attr source  rcvdAppPkt
attr title  "packets received during sec, vector"
vector 114  Topo.server1.udpApp[0]  rcvdAppPkt:vector  ETV
attr interpolationmode  none
attr source  rcvdAppPkt
attr title  "packets received during sec, vector"
vector 142  Topo.server2.udpApp[0]  rcvdAppPkt:vector  ETV
attr interpolationmode  none
attr source  rcvdAppPkt
attr title  "packets received during sec, vector"
vector 57  Topo.client3.udpApp[0]  sentPk:vector(packetBytes)  ETV
attr interpolationmode  none
attr source  sentPk
attr title  "packets sent, vector(packetBytes)"
vector 59  Topo.client3.udp  sentPk:vector(packetBytes)  ETV
attr interpolationmode  none
attr source  sentPk
attr title  "packets sent, vector(packetBytes)"
vector 60  Topo.client3.udp  sentPk:vector(count)  ETV
attr interpolationmode  none
attr source  sentPk
attr title  "packets sent, vector(count)"
vector 67  Topo.client3.networkLayer.arp  sentReq:vector  ETV
attr title  "ARP request sent, vector"
vector 81  Topo.client3.eth[0].encap  encapPk:vector(packetBytes)  ETV
attr interpolationmode  none
attr source  encapPk
attr title  "packets encapsulated, vector(packetBytes)"
vector 77  Topo.client3.eth[0].mac  rxPkFromHL:vector(packetBytes)  ETV
attr interpolationmode  none
attr source  rxPkFromHL
attr title  "packet bytes from higher layer, vector(packetBytes)"
vector 72  Topo.client3.eth[0].mac  txPk:vector(packetBytes)  ETV
attr interpolationmode  none
attr source  txPk
attr title  "packets transmitted, vector(packetBytes)"
vector 219  Topo.s1.etherMAC[2]  rxPkOk:vector(packetBytes)  ETV
attr interpolationmode  none
attr source  rxPkOk
attr title  "packets received OK, vector(packetBytes)"
vector 220  Topo.s1.etherMAC[2]  passedUpPk:vector(packetBytes)  ETV
attr interpolationmode  none
attr source  packetSentToUpper
attr title  "packets passed to higher layer, vector(packetBytes)"
1	22624 16637 181 95257 0.1 94.9 949 1250 1250 1186250 1482812500
3	39261 16637 185 95259 0.1 94.9 949 1258 1258 1193842 1501853236
4	55898 15580 185 95259 0.1 94.9 949 1 949 450775 285340575
11	71478 13 187 187 0.1 0.1 1 1 1 1 1
16	71491 24442 193 95266 0.10000576 94.90010432 950 64 1296 1229968 1593959680
17	95933 102 416 2540 0.100099919998 2.000049919998 4 64 64 256 16384
18	96035 102 416 2540 0.100099919998 2.000049919998 4 64 64 256 16384
21	96137 17611 191 95264 0.1 94.9 950 64 1296 1229968 1593959680
25	113748 17611 190 95263 0.1 94.9 950 28 1278 1212850 1549987300
26	131359 102 418 2547 0.100099919998 2.000049919998 4 28 28 112 3136
29	131461 2898 1249 94955 0.6 94.8 158 1250 1250 197500 246875000
31	134359 2898 1257 94961 0.6 94.8 158 1258 1258 198764 250045112
32	137257 2632 1257 94961 0.6 94.8 158 1 158 12561 1327279
39	139889 14 1263 1263 0.6 0.6 1 1 1 1 1
44	139903 4092 1279 95017 0.60000576 94.80010432 159 64 1296 204832 265383424
45	143995 102 279 2541 0.100043199999 2.000049919998 4 64 64 256 16384
46	144097 102 279 2541 0.100043199999 2.000049919998 4 64 64 256 16384
49	144199 2924 1275 94976 0.6 94.8 159 64 1296 204832 265383424
53	147123 2924 1272 94973 0.6 94.8 159 28 1278 201952 258059656
54	150047 102 286 2548 0.100043199999 2.000049919998 4 28 28 112 3136
57	150149 788 2358 94029 2 94 47 1250 1250 58750 73437500
59	150937 788 2368 94039 2 94 47 1258 1258 59126 74380508
60	151725 685 2368 94039 2 94 47 1 47 1128 35720
67	152410 12 2376 2376 2 2 1 1 1 1 1
72	152422 1237 2396 94126 2.00000576 94.00010432 48 64 1296 60976 78946048
73	153659 102 280 2695 0.100043199999 2.000106639997 4 64 64 256 16384
74	153761 102 280 2695 0.100043199999 2.000106639997 4 64 64 256 16384
77	153863 814 2391 94060 2 94 48 64 1296 60976 78946048
81	154677 814 2388 94056 2 94 48 28 1278 60094 76765132
82	155491 102 287 2697 0.100043199999 2.000106639997 4 28 28 112 3136
85	155593 8690 645 94956 0.2 94.8 474 1250 1250 592500 740625000
87	164283 8690 651 94962 0.2 94.8 474 1258 1258 596292 750135336
88	172973 8108 651 94962 0.2 94.8 474 1 474 112575 35611225
95	181081 13 655 655 0.2 0.2 1 1 1 1 1
100	181094 12696 666 95018 0.20000576 94.80010432 475 64 1296 614368 796142080
101	193790 106 281 2542 0.100043199999 2.000049919998 4 64 64 256 16384
102	193896 106 281 2542 0.100043199999 2.000049919998 4 64 64 256 16384
105	194002 9190 663 94977 0.2 94.8 475 64 1296 614368 796142080
109	203192 9190 661 94974 0.2 94.8 475 28 1278 605800 774177400
110	212382 106 288 2549 0.100043199999 2.000049919998 4 28 28 112 3136
112	212488 25375 644 95284 0.100569039992 94.90021064 949 1250 1250 1186250 1482812500
113	237863 24318 644 95284 0.100569039992 94.90021064 949 1 949 450775 285340575
114	262181 2326 1936 94291 1.00021064 94.00021064 94 10 10 940 9400
117	264507 25375 642 95282 0.100569039992 94.90021064 949 1258 1258 1193842 1501853236
118	289882 24318 642 95282 0.100569039992 94.90021064 949 1 949 450775 285340575
121	314200 31077 642 95282 0.100569039992 94.90021064 949 0.00021064 0.000569039992 0.200514239986 4.2561521572467e-05
122	345277 31077 642 95282 0.100569039992 94.90021064 949 0.00021064 0.000569039992 0.200514239986 4.2561521572467e-05
124	376354 25 310 310 0.100043199999 0.100043199999 1 1 1 1 1
128	376379 26 320 320 0.100048959999 0.100048959999 1 64 64 64 4096
129	376405 25481 282 95277 0.100043199999 94.90021064 953 64 1296 1230160 1593971968
130	401886 25481 282 95277 0.100043199999 94.90021064 953 64 1296 1230160 1593971968
133	427367 26 318 318 0.100043199999 0.100043199999 1 64 64 64 4096
137	427393 26 317 317 0.100043199999 0.100043199999 1 28 28 28 784
138	427419 25481 289 95278 0.100043199999 94.90021064 953 28 1278 1212934 1549989652
140	452900 5567 1768 95194 0.600569039992 94.80021064 205 1250 1250 256250 320312500
141	458467 5254 1768 95194 0.600569039992 94.80021064 205 1 205 21115 2892755
142	463721 2244 2046 94289 1.20021064 94.00021064 94 1 3 203 481
145	465965 5567 1766 95188 0.600569039992 94.80021064 205 1258 1258 257890 324425620
146	471532 5254 1766 95188 0.600569039992 94.80021064 205 1 205 21115 2892755
149	476786 6881 1766 95188 0.600569039992 94.80021064 205 0.00021064 0.000575759991 0.046820959774 1.1463164529761e-05
150	483667 6881 1766 95188 0.600569039992 94.80021064 205 0.00021064 0.000575759991 0.046820959774 1.1463164529761e-05
152	490548 52 1397 2572 0.600043199999 2.000049919998 2 1 1 2 2
156	490600 54 1406 2581 0.600048959999 2.000055679998 2 64 64 128 8192
157	490654 11490 283 95253 0.100043199999 94.800363799948 397 64 1296 509584 660105472
158	502144 11490 283 95253 0.100043199999 94.800363799948 397 64 1296 509584 660105472
161	513634 54 1404 2579 0.600043199999 2.000049919998 2 64 64 128 8192
165	513688 54 1403 2578 0.600043199999 2.000049919998 2 28 28 56 1568
166	513742 11490 290 95254 0.100043199999 94.800363799948 397 28 1278 502366 641883748
168	525232 12688 1136 95195 0.200569039992 94.80021064 474 1250 1250 592500 740625000
169	537920 12106 1136 95195 0.200569039992 94.80021064 474 1 474 112575 35611225
170	550026 2232 1935 94290 1.00021064 94.00021064 94 5 5 470 2350
173	552258 12688 1134 95189 0.200569039992 94.80021064 474 1258 1258 596292 750135336
174	564946 12106 1134 95189 0.200569039992 94.80021064 474 1 474 112575 35611225
177	577052 15548 1134 95189 0.200569039992 94.80021064 474 0.00021064 0.000569039992 0.101051999895 2.1910533521879e-05
178	592600 15548 1134 95189 0.200569039992 94.80021064 474 0.00021064 0.000569039992 0.101051999895 2.1910533521879e-05
180	608148 25 785 785 0.200043199999 0.200043199999 1 1 1 1 1
184	608173 26 793 793 0.200048959999 0.200048959999 1 64 64 64 4096
185	608199 12794 284 95174 0.100043199999 94.80021064 478 64 1296 614560 796154368
186	620993 12794 284 95174 0.100043199999 94.80021064 478 64 1296 614560 796154368
189	633787 26 791 791 0.200043199999 0.200043199999 1 64 64 64 4096
193	633813 26 790 790 0.200043199999 0.200043199999 1 28 28 28 784
194	633839 12794 291 95177 0.100043199999 94.80021064 478 28 1278 605884 774179752
196	646633 106 412 2519 0.100098919998 2.000048919998 4 64 64 256 16384
197	646739 25392 195 95268 0.10000676 94.90010532 950 64 1296 1229968 1593959680
198	672131 25392 195 95268 0.10000676 94.90010532 950 64 1296 1229968 1593959680
201	697523 106 409 2510 0.100093159998 2.000043159998 4 64 64 256 16384
207	697629 106 265 2520 0.100042199999 2.000048919998 4 64 64 256 16384
208	697735 4251 1281 95030 0.60000676 94.80010532 159 64 1296 204832 265383424
209	701986 4251 1281 95030 0.60000676 94.80010532 159 64 1296 204832 265383424
212	706237 106 257 2511 0.100036439999 2.000043159998 4 64 64 256 16384
218	706343 106 266 2689 0.100042199999 2.000105639997 4 64 64 256 16384
219	706449 1285 2400 94139 2.00000676 94.00010532 48 64 1296 60976 78946048
220	707734 1285 2400 94139 2.00000676 94.00010532 48 64 1296 60976 78946048
223	709019 106 258 2670 0.100036439999 2.000099879997 4 64 64 256 16384
229	709125 106 267 2521 0.100042199999 2.000048919998 4 64 64 256 16384
230	709231 12696 668 95031 0.20000676 94.80010532 475 64 1296 614368 796142080
231	721927 12696 668 95031 0.20000676 94.80010532 475 64 1296 614368 796142080
234	734623 106 259 2512 0.100036439999 2.000043159998 4 64 64 256 16384