file 2926934 1479212168                                         
version 2
run simple_attack-0-20161115-13:15:15-5668
attr configname simple_attack
attr datetime 20161115-13:15:15
attr experiment simple_attack
attr inifile omnetpp.ini
attr iterationvars ""
attr iterationvars2 $repetition=0
attr measurement ""
attr network Topo
attr processid 5668
attr repetition 0
attr replication #0
attr resultdir results
attr runnumber 0
attr seedset 0

vector 329  Topo.s1.tcp  tcpRcvQueueBytes  ETV
vector 316  Topo.s1.tcp  "advertised window"  ETV
vector 315  Topo.s1.tcp  "receive window"  ETV
vector 318  Topo.s1.tcp  "sent ack"  ETV
vector 259  Topo.s1.networkLayer.arp  sentReq:vector  ETV
attr title  "ARP request sent, vector"
vector 270  Topo.s1.eth[0].encap  encapPk:vector(packetBytes)  ETV
attr interpolationmode  none
attr source  encapPk
attr title  "packets encapsulated, vector(packetBytes)"
vector 266  Topo.s1.eth[0].mac  rxPkFromHL:vector(packetBytes)  ETV
attr interpolationmode  none
attr source  rxPkFromHL
attr title  "packet bytes from higher layer, vector(packetBytes)"
vector 261  Topo.s1.eth[0].mac  txPk:vector(packetBytes)  ETV
attr interpolationmode  none
attr source  txPk
attr title  "packets transmitted, vector(packetBytes)"
vector 279  Topo.controller.eth[0].mac  rxPkOk:vector(packetBytes)  ETV
attr interpolationmode  none
attr source  rxPkOk
attr title  "packets received OK, vector(packetBytes)"
vector 280  Topo.controller.eth[0].mac  passedUpPk:vector(packetBytes)  ETV
attr interpolationmode  none
attr source  packetSentToUpper
attr title  "packets passed to higher layer, vector(packetBytes)"
vector 288  Topo.controller.eth[0].encap  decapPk:vector(packetBytes)  ETV
attr interpolationmode  none
attr source  decapPk
attr title  "packets decapsulated, vector(packetBytes)"
vector 274  Topo.controller.networkLayer.arp  sentReply:vector  ETV
attr title  "ARP replies sent, vector"
vector 287  Topo.controller.eth[0].encap  encapPk:vector(packetBytes)  ETV
attr interpolationmode  none
attr source  encapPk
attr title  "packets encapsulated, vector(packetBytes)"
vector 283  Topo.controller.eth[0].mac  rxPkFromHL:vector(packetBytes)  ETV
attr interpolationmode  none
attr source  rxPkFromHL
attr title  "packet bytes from higher layer, vector(packetBytes)"
vector 278  Topo.controller.eth[0].mac  txPk:vector(packetBytes)  ETV
attr interpolationmode  none
attr source  txPk
attr title  "packets transmitted, vector(packetBytes)"
vector 262  Topo.s1.eth[0].mac  rxPkOk:vector(packetBytes)  ETV
attr interpolationmode  none
attr source  rxPkOk
attr title  "packets received OK, vector(packetBytes)"
vector 263  Topo.s1.eth[0].mac  passedUpPk:vector(packetBytes)  ETV
attr interpolationmode  none
attr source  packetSentToUpper
attr title  "packets passed to higher layer, vector(packetBytes)"
vector 271  Topo.s1.eth[0].encap  decapPk:vector(packetBytes)  ETV
attr interpolationmode  none
attr source  decapPk
attr title  "packets decapsulated, vector(packetBytes)"
vector 295  Topo.controller.tcp  "rcvd seq"  ETV
vector 296  Topo.controller.tcp  "rcvd ack"  ETV
vector 292  Topo.controller.tcp  "advertised window"  ETV
vector 290  Topo.controller.tcp  "send window"  ETV
vector 305  Topo.controller.tcp  tcpRcvQueueBytes  ETV
vector 291  Topo.controller.tcp  "receive window"  ETV
vector 294  Topo.controller.tcp  "sent ack"  ETV
vector 319  Topo.s1.tcp  "rcvd seq"  ETV
vector 320  Topo.s1.tcp  "rcvd ack"  ETV
vector 314  Topo.s1.tcp  "send window"  ETV
vector 297  Topo.controller.tcp  "unacked bytes"  ETV
vector 293  Topo.controller.tcp  "sent seq"  ETV
vector 322  Topo.s1.tcp  "rcvd dupAcks"  ETV
vector 317  Topo.s1.tcp  "sent seq"  ETV
vector 321  Topo.s1.tcp  "unacked bytes"  ETV
vector 309  Topo.controller.tcp  "measured RTT"  ETV
vector 310  Topo.controller.tcp  "smoothed RTT"  ETV
vector 311  Topo.controller.tcp  RTTVAR  ETV
vector 312  Topo.controller.tcp  RTO  ETV
vector 307  Topo.controller.tcp  cwnd  ETV
vector 298  Topo.controller.tcp  "rcvd dupAcks"  ETV
vector 333  Topo.s1.tcp  "measured RTT"  ETV
vector 334  Topo.s1.tcp  "smoothed RTT"  ETV
vector 335  Topo.s1.tcp  RTTVAR  ETV
vector 336  Topo.s1.tcp  RTO  ETV
vector 331  Topo.s1.tcp  cwnd  ETV
vector 1  Topo.client1.udpApp[0]  sentPk:vector(packetBytes)  ETV
attr interpolationmode  none
attr source  sentPk
attr title  "packets sent, vector(packetBytes)"
vector 3  Topo.client1.udp  sentPk:vector(packetBytes)  ETV
attr interpolationmode  none
attr source  sentPk
attr title  "packets sent, vector(packetBytes)"
vector 4  Topo.client1.udp  sentPk:vector(count)  ETV
attr interpolationmode  none
attr source  sentPk
attr title  "packets sent, vector(count)"
vector 9  Topo.client1.networkLayer.arp  sentReq:vector  ETV
attr title  "ARP request sent, vector"
vector 23  Topo.client1.eth[0].encap  encapPk:vector(packetBytes)  ETV
attr interpolationmode  none
attr source  encapPk
attr title  "packets encapsulated, vector(packetBytes)"
vector 19  Topo.client1.eth[0].mac  rxPkFromHL:vector(packetBytes)  ETV
attr interpolationmode  none
attr source  rxPkFromHL
attr title  "packet bytes from higher layer, vector(packetBytes)"
vector 14  Topo.client1.eth[0].mac  txPk:vector(packetBytes)  ETV
attr interpolationmode  none
attr source  txPk
attr title  "packets transmitted, vector(packetBytes)"
vector 183  Topo.s1.etherMAC[0]  rxPkOk:vector(packetBytes)  ETV
attr interpolationmode  none
attr source  rxPkOk
attr title  "packets received OK, vector(packetBytes)"
vector 184  Topo.s1.etherMAC[0]  passedUpPk:vector(packetBytes)  ETV
attr interpolationmode  none
attr source  packetSentToUpper
attr title  "packets passed to higher layer, vector(packetBytes)"
vector 198  Topo.s1.etherMAC[1]  rxPkFromHL:vector(packetBytes)  ETV
attr interpolationmode  none
attr source  rxPkFromHL
attr title  "packet bytes from higher layer, vector(packetBytes)"
vector 209  Topo.s1.etherMAC[2]  rxPkFromHL:vector(packetBytes)  ETV
attr interpolationmode  none
attr source  rxPkFromHL
attr title  "packet bytes from higher layer, vector(packetBytes)"
vector 220  Topo.s1.etherMAC[3]  rxPkFromHL:vector(packetBytes)  ETV
attr interpolationmode  none
attr source  rxPkFromHL
attr title  "packet bytes from higher layer, vector(packetBytes)"
vector 231  Topo.s1.etherMAC[4]  rxPkFromHL:vector(packetBytes)  ETV
attr interpolationmode  none
attr source  rxPkFromHL
attr title  "packet bytes from higher layer, vector(packetBytes)"
vector 242  Topo.s1.etherMAC[5]  rxPkFromHL:vector(packetBytes)  ETV
attr interpolationmode  none
attr source  rxPkFromHL
attr title  "packet bytes from higher layer, vector(packetBytes)"
vector 253  Topo.s1.etherMAC[6]  rxPkFromHL:vector(packetBytes)  ETV
attr interpolationmode  none
attr source  rxPkFromHL
attr title  "packet bytes from higher layer, vector(packetBytes)"
vector 193  Topo.s1.etherMAC[1]  txPk:vector(packetBytes)  ETV
attr interpolationmode  none
attr source  txPk
attr title  "packets transmitted, vector(packetBytes)"
vector 204  Topo.s1.etherMAC[2]  txPk:vector(packetBytes)  ETV
attr interpolationmode  none
attr source  txPk
attr title  "packets transmitted, vector(packetBytes)"
vector 215  Topo.s1.etherMAC[3]  txPk:vector(packetBytes)  ETV
attr interpolationmode  none
attr source  txPk
attr title  "packets transmitted, vector(packetBytes)"
vector 226  Topo.s1.etherMAC[4]  txPk:vector(packetBytes)  ETV
attr interpolationmode  none
attr source  txPk
attr title  "packets transmitted, vector(packetBytes)"
vector 237  Topo.s1.etherMAC[5]  txPk:vector(packetBytes)  ETV
attr interpolationmode  none
attr source  txPk
attr title  "packets transmitted, vector(packetBytes)"
vector 248  Topo.s1.etherMAC[6]  txPk:vector(packetBytes)  ETV
attr interpolationmode  none
attr source  txPk
attr title  "packets transmitted, vector(packetBytes)"
vector 41  Topo.client2.eth[0].mac  rxPkOk:vector(packetBytes)  ETV
attr interpolationmode  none
attr source  rxPkOk
attr title  "packets received OK, vector(packetBytes)"
vector 42  Topo.client2.eth[0].mac  passedUpPk:vector(packetBytes)  ETV
attr interpolationmode  none
attr source  packetSentToUpper
attr title  "packets passed to higher layer, vector(packetBytes)"
vector 67  Topo.client3.eth[0].mac  rxPkOk:vector(packetBytes)  ETV
attr interpolationmode  none
attr source  rxPkOk
attr title  "packets received OK, vector(packetBytes)"
vector 68  Topo.client3.eth[0].mac  passedUpPk:vector(packetBytes)  ETV
attr interpolationmode  none
attr source  packetSentToUpper
attr title  "packets passed to higher layer, vector(packetBytes)"
vector 93  Topo.client4.eth[0].mac  rxPkOk:vector(packetBytes)  ETV
attr interpolationmode  none
attr source  rxPkOk
attr title  "packets received OK, vector(packetBytes)"
vector 94  Topo.client4.eth[0].mac  passedUpPk:vector(packetBytes)  ETV
attr interpolationmode  none
attr source  packetSentToUpper
attr title  "packets passed to higher layer, vector(packetBytes)"
vector 119  Topo.server1.eth[0].mac  rxPkOk:vector(packetBytes)  ETV
attr interpolationmode  none
attr source  rxPkOk
attr title  "packets received OK, vector(packetBytes)"
vector 120  Topo.server1.eth[0].mac  passedUpPk:vector(packetBytes)  ETV
attr interpolationmode  none
attr source  packetSentToUpper
attr title  "packets passed to higher layer, vector(packetBytes)"
vector 145  Topo.server2.eth[0].mac  rxPkOk:vector(packetBytes)  ETV
attr interpolationmode  none
attr source  rxPkOk
attr title  "packets received OK, vector(packetBytes)"
vector 146  Topo.server2.eth[0].mac  passedUpPk:vector(packetBytes)  ETV
attr interpolationmode  none
attr source  packetSentToUpper
attr title  "packets passed to higher layer, vector(packetBytes)"
vector 171  Topo.server3.eth[0].mac  rxPkOk:vector(packetBytes)  ETV
attr interpolationmode  none
attr source  rxPkOk
attr title  "packets received OK, vector(packetBytes)"
vector 172  Topo.server3.eth[0].mac  passedUpPk:vector(packetBytes)  ETV
attr interpolationmode  none
attr source  packetSentToUpper
attr title  "packets passed to higher layer, vector(packetBytes)"
vector 50  Topo.client2.eth[0].encap  decapPk:vector(packetBytes)  ETV
attr interpolationmode  none
attr source  decapPk
attr title  "packets decapsulated, vector(packetBytes)"
vector 76  Topo.client3.eth[0].encap  decapPk:vector(packetBytes)  ETV
attr interpolationmode  none
attr source  decapPk
attr title  "packets decapsulated, vector(packetBytes)"
vector 102  Topo.client4.eth[0].encap  decapPk:vector(packetBytes)  ETV
attr interpolationmode  none
attr source  decapPk
attr title  "packets decapsulated, vector(packetBytes)"
vector 128  Topo.server1.eth[0].encap  decapPk:vector(packetBytes)  ETV
attr interpolationmode  none
attr source  decapPk
attr title  "packets decapsulated, vector(packetBytes)"
vector 154  Topo.server2.eth[0].encap  decapPk:vector(packetBytes)  ETV
attr interpolationmode  none
attr source  decapPk
attr title  "packets decapsulated, vector(packetBytes)"
vector 180  Topo.server3.eth[0].encap  decapPk:vector(packetBytes)  ETV
attr interpolationmode  none
attr source  decapPk
attr title  "packets decapsulated, vector(packetBytes)"
vector 114  Topo.server1.networkLayer.arp  sentReply:vector  ETV
attr title  "ARP replies sent, vector"
vector 127  Topo.server1.eth[0].encap  encapPk:vector(packetBytes)  ETV
attr interpolationmode  none
attr source  encapPk
attr title  "packets encapsulated, vector(packetBytes)"
vector 123  Topo.server1.eth[0].mac  rxPkFromHL:vector(packetBytes)  ETV
attr interpolationmode  none
attr source  rxPkFromHL
attr title  "packet bytes from higher layer, vector(packetBytes)"
vector 118  Topo.server1.eth[0].mac  txPk:vector(packetBytes)  ETV
attr interpolationmode  none
attr source  txPk
attr title  "packets transmitted, vector(packetBytes)"
vector 227  Topo.s1.etherMAC[4]  rxPkOk:vector(packetBytes)  ETV
attr interpolationmode  none
attr source  rxPkOk
attr title  "packets received OK, vector(packetBytes)"
vector 228  Topo.s1.etherMAC[4]  passedUpPk:vector(packetBytes)  ETV
attr interpolationmode  none
attr source  packetSentToUpper
attr title  "packets passed to higher layer, vector(packetBytes)"
vector 187  Topo.s1.etherMAC[0]  rxPkFromHL:vector(packetBytes)  ETV
attr interpolationmode  none
attr source  rxPkFromHL
attr title  "packet bytes from higher layer, vector(packetBytes)"
vector 182  Topo.s1.etherMAC[0]  txPk:vector(packetBytes)  ETV
attr interpolationmode  none
attr source  txPk
attr title  "packets transmitted, vector(packetBytes)"
vector 15  Topo.client1.eth[0].mac  rxPkOk:vector(packetBytes)  ETV
attr interpolationmode  none
attr source  rxPkOk
attr title  "packets received OK, vector(packetBytes)"
vector 16  Topo.client1.eth[0].mac  passedUpPk:vector(packetBytes)  ETV
attr interpolationmode  none
attr source  packetSentToUpper
attr title  "packets passed to higher layer, vector(packetBytes)"
vector 24  Topo.client1.eth[0].encap  decapPk:vector(packetBytes)  ETV
attr interpolationmode  none
attr source  decapPk
attr title  "packets decapsulated, vector(packetBytes)"
vector 109  Topo.server1.udp  rcvdPk:vector(packetBytes)  ETV
attr interpolationmode  none
attr source  rcvdPk
attr title  "packets received, vector(packetBytes)"
vector 110  Topo.server1.udp  passedUpPk:vector(count)  ETV
attr interpolationmode  none
attr title  "packets passed up, vector(count)"
vector 104  Topo.server1.udpApp[0]  rcvdPk:vector(packetBytes)  ETV
attr interpolationmode  none
attr source  rcvdPk
attr title  "packets received, vector(packetBytes)"
vector 105  Topo.server1.udpApp[0]  rcvdPk:vector(count)  ETV
attr interpolationmode  none
attr source  rcvdPk
attr title  "packets received, vector(count)"
vector 79  Topo.client4.udpApp[0]  sentPk:vector(packetBytes)  ETV
attr interpolationmode  none
attr source  sentPk
attr title  "packets sent, vector(packetBytes)"
vector 81  Topo.client4.udp  sentPk:vector(packetBytes)  ETV
attr interpolationmode  none
attr source  sentPk
attr title  "packets sent, vector(packetBytes)"
vector 82  Topo.client4.udp  sentPk:vector(count)  ETV
attr interpolationmode  none
attr source  sentPk
attr title  "packets sent, vector(count)"
vector 87  Topo.client4.networkLayer.arp  sentReq:vector  ETV
attr title  "ARP request sent, vector"
vector 101  Topo.client4.eth[0].encap  encapPk:vector(packetBytes)  ETV
attr interpolationmode  none
attr source  encapPk
attr title  "packets encapsulated, vector(packetBytes)"
vector 97  Topo.client4.eth[0].mac  rxPkFromHL:vector(packetBytes)  ETV
attr interpolationmode  none
attr source  rxPkFromHL
attr title  "packet bytes from higher layer, vector(packetBytes)"
vector 92  Topo.client4.eth[0].mac  txPk:vector(packetBytes)  ETV
attr interpolationmode  none
attr source  txPk
attr title  "packets transmitted, vector(packetBytes)"
vector 216  Topo.s1.etherMAC[3]  rxPkOk:vector(packetBytes)  ETV
attr interpolationmode  none
attr source  rxPkOk
attr title  "packets received OK, vector(packetBytes)"
vector 217  Topo.s1.etherMAC[3]  passedUpPk:vector(packetBytes)  ETV
attr interpolationmode  none
attr source  packetSentToUpper
attr title  "packets passed to higher layer, vector(packetBytes)"
vector 166  Topo.server3.networkLayer.arp  sentReply:vector  ETV
attr title  "ARP replies sent, vector"
vector 179  Topo.server3.eth[0].encap  encapPk:vector(packetBytes)  ETV
attr interpolationmode  none
attr source  encapPk
attr title  "packets encapsulated, vector(packetBytes)"
vector 175  Topo.server3.eth[0].mac  rxPkFromHL:vector(packetBytes)  ETV
attr interpolationmode  none
attr source  rxPkFromHL
attr title  "packet bytes from higher layer, vector(packetBytes)"
vector 170  Topo.server3.eth[0].mac  txPk:vector(packetBytes)  ETV
attr interpolationmode  none
attr source  txPk
attr title  "packets transmitted, vector(packetBytes)"
vector 249  Topo.s1.etherMAC[6]  rxPkOk:vector(packetBytes)  ETV
attr interpolationmode  none
attr source  rxPkOk
attr title  "packets received OK, vector(packetBytes)"
vector 250  Topo.s1.etherMAC[6]  passedUpPk:vector(packetBytes)  ETV
attr interpolationmode  none
attr source  packetSentToUpper
attr title  "packets passed to higher layer, vector(packetBytes)"
vector 161  Topo.server3.udp  rcvdPk:vector(packetBytes)  ETV
attr interpolationmode  none
attr source  rcvdPk
attr title  "packets received, vector(packetBytes)"
vector 162  Topo.server3.udp  passedUpPk:vector(count)  ETV
attr interpolationmode  none
attr title  "packets passed up, vector(count)"
vector 156  Topo.server3.udpApp[0]  rcvdPk:vector(packetBytes)  ETV
attr interpolationmode  none
attr source  rcvdPk
attr title  "packets received, vector(packetBytes)"
vector 157  Topo.server3.udpApp[0]  rcvdPk:vector(count)  ETV
attr interpolationmode  none
attr source  rcvdPk
attr title  "packets received, vector(count)"
vector 27  Topo.client2.udpApp[0]  sentPk:vector(packetBytes)  ETV
attr interpolationmode  none
attr source  sentPk
attr title  "packets sent, vector(packetBytes)"
vector 29  Topo.client2.udp  sentPk:vector(packetBytes)  ETV
attr interpolationmode  none
attr source  sentPk
attr title  "packets sent, vector(packetBytes)"
vector 30  Topo.client2.udp  sentPk:vector(count)  ETV
attr interpolationmode  none
attr source  sentPk
attr title  "packets sent, vector(count)"
vector 35  Topo.client2.networkLayer.arp  sentReq:vector  ETV
attr title  "ARP request sent, vector"
vector 49  Topo.client2.eth[0].encap  encapPk:vector(packetBytes)  ETV
attr interpolationmode  none
attr source  encapPk
attr title  "packets encapsulated, vector(packetBytes)"
vector 45  Topo.client2.eth[0].mac  rxPkFromHL:vector(packetBytes)  ETV
attr interpolationmode  none
attr source  rxPkFromHL
attr title  "packet bytes from higher layer, vector(packetBytes)"
vector 40  Topo.client2.eth[0].mac  txPk:vector(packetBytes)  ETV
attr interpolationmode  none
attr source  txPk
attr title  "packets transmitted, vector(packetBytes)"
vector 194  Topo.s1.etherMAC[1]  rxPkOk:vector(packetBytes)  ETV
attr interpolationmode  none
attr source  rxPkOk
attr title  "packets received OK, vector(packetBytes)"
vector 195  Topo.s1.etherMAC[1]  passedUpPk:vector(packetBytes)  ETV
attr interpolationmode  none
attr source  packetSentToUpper
attr title  "packets passed to higher layer, vector(packetBytes)"
vector 140  Topo.server2.networkLayer.arp  sentReply:vector  ETV
attr title  "ARP replies sent, vector"
vector 153  Topo.server2.eth[0].encap  encapPk:vector(packetBytes)  ETV
attr interpolationmode  none
attr source  encapPk
attr title  "packets encapsulated, vector(packetBytes)"
vector 149  Topo.server2.eth[0].mac  rxPkFromHL:vector(packetBytes)  ETV
attr interpolationmode  none
attr source  rxPkFromHL
attr title  "packet bytes from higher layer, vector(packetBytes)"
vector 144  Topo.server2.eth[0].mac  txPk:vector(packetBytes)  ETV
attr interpolationmode  none
attr source  txPk
attr title  "packets transmitted, vector(packetBytes)"
vector 238  Topo.s1.etherMAC[5]  rxPkOk:vector(packetBytes)  ETV
attr interpolationmode  none
attr source  rxPkOk
attr title  "packets received OK, vector(packetBytes)"
vector 239  Topo.s1.etherMAC[5]  passedUpPk:vector(packetBytes)  ETV
attr interpolationmode  none
attr source  packetSentToUpper
attr title  "packets passed to higher layer, vector(packetBytes)"
vector 135  Topo.server2.udp  rcvdPk:vector(packetBytes)  ETV
attr interpolationmode  none
attr source  rcvdPk
attr title  "packets received, vector(packetBytes)"
vector 136  Topo.server2.udp  passedUpPk:vector(count)  ETV
attr interpolationmode  none
attr title  "packets passed up, vector(count)"
vector 130  Topo.server2.udpApp[0]  rcvdPk:vector(packetBytes)  ETV
attr interpolationmode  none
attr source  rcvdPk
attr title  "packets received, vector(packetBytes)"
vector 131  Topo.server2.udpApp[0]  rcvdPk:vector(count)  ETV
attr interpolationmode  none
attr source  rcvdPk
attr title  "packets received, vector(count)"
vector 158  Topo.server3.udpApp[0]  rcvdAppPkt:vector  ETV
attr interpolationmode  none
attr source  rcvdAppPkt
attr title  "packets received during sec, vector"
vector 106  Topo.server1.udpApp[0]  rcvdAppPkt:vector  ETV
attr interpolationmode  none
attr source  rcvdAppPkt
attr title  "packets received during sec, vector"
vector 132  Topo.server2.udpApp[0]  rcvdAppPkt:vector  ETV
attr interpolationmode  none
attr source  rcvdAppPkt
attr title  "packets received during sec, vector"
vector 53  Topo.client3.udpApp[0]  sentPk:vector(packetBytes)  ETV
attr interpolationmode  none
attr source  sentPk
attr title  "packets sent, vector(packetBytes)"
vector 55  Topo.client3.udp  sentPk:vector(packetBytes)  ETV
attr interpolationmode  none
attr source  sentPk
attr title  "packets sent, vector(packetBytes)"
vector 56  Topo.client3.udp  sentPk:vector(count)  ETV
attr interpolationmode  none
attr source  sentPk
attr title  "packets sent, vector(count)"
vector 61  Topo.client3.networkLayer.arp  sentReq:vector  ETV
attr title  "ARP request sent, vector"
vector 75  Topo.client3.eth[0].encap  encapPk:vector(packetBytes)  ETV
attr interpolationmode  none
attr source  encapPk
attr title  "packets encapsulated, vector(packetBytes)"
vector 71  Topo.client3.eth[0].mac  rxPkFromHL:vector(packetBytes)  ETV
attr interpolationmode  none
attr source  rxPkFromHL
attr title  "packet bytes from higher layer, vector(packetBytes)"
vector 66  Topo.client3.eth[0].mac  txPk:vector(packetBytes)  ETV
attr interpolationmode  none
attr source  txPk
attr title  "packets transmitted, vector(packetBytes)"
vector 205  Topo.s1.etherMAC[2]  rxPkOk:vector(packetBytes)  ETV
attr interpolationmode  none
attr source  rxPkOk
attr title  "packets received OK, vector(packetBytes)"
vector 206  Topo.s1.etherMAC[2]  passedUpPk:vector(packetBytes)  ETV
attr interpolationmode  none
attr source  packetSentToUpper
attr title  "packets passed to higher layer, vector(packetBytes)"
1	21711 4308 181 92709 0.1 24.9 249 1250 1250 311250 389062500
3	26019 4308 185 92711 0.1 24.9 249 1258 1258 313242 394058436
4	30327 3951 185 92711 0.1 24.9 249 1 249 31125 5177125
9	34278 12 187 187 0.1 0.1 1 1 1 1 1
14	34290 6373 193 92718 0.10000576 24.90010432 250 64 1296 322768 418228480
15	40663 102 416 7621 0.100099919998 2.000043199999 4 64 64 256 16384
16	40765 102 416 7621 0.100099919998 2.000043199999 4 64 64 256 16384
19	40867 4582 191 92716 0.1 24.9 250 64 1296 322768 418228480
23	45449 4582 190 92715 0.1 24.9 250 28 1278 318250 406688500
24	50031 102 418 7628 0.100099919998 2.000043199999 4 28 28 112 3136
27	50133 743 2172 91342 0.6 24.6 41 1250 1250 51250 64062500
29	50876 743 2180 91348 0.6 24.6 41 1258 1258 51578 64885124
30	51619 652 2180 91348 0.6 24.6 41 1 41 861 23821
35	52271 14 2186 2186 0.6 0.6 1 1 1 1 1
40	52285 1072 2202 91369 0.60000576 24.60010432 42 64 1296 53200 68868352
41	53357 102 279 7622 0.100043199999 2.000043199999 4 64 64 256 16384
42	53459 102 279 7622 0.100043199999 2.000043199999 4 64 64 256 16384
45	53561 769 2198 91363 0.6 24.6 42 64 1296 53200 68868352
49	54330 769 2195 91360 0.6 24.6 42 28 1278 52426 66965428
50	55099 102 286 7629 0.100043199999 2.000043199999 4 28 28 112 3136
53	55201 199 7505 88816 2 24 12 1250 1250 15000 18750000
55	55400 199 7513 88824 2 24 12 1258 1258 15096 18990768
56	55599 166 7513 88824 2 24 12 1 12 78 650
61	55765 12 7519 7519 2 2 1 1 1 1 1
66	55777 333 7535 88948 2.00000576 24.00010432 13 64 1296 15616 20159488
67	56110 102 280 7758 0.100043199999 2.000099919998 4 64 64 256 16384
68	56212 102 280 7758 0.100043199999 2.000099919998 4 64 64 256 16384
71	56314 225 7531 88844 2 24 13 64 1296 15616 20159488
75	56539 225 7528 88840 2 24 13 28 1278 15364 19600192
76	56764 102 287 7760 0.100043199999 2.000099919998 4 28 28 112 3136
79	56866 2246 645 92193 0.2 24.8 124 1250 1250 155000 193750000
81	59112 2246 651 92197 0.2 24.8 124 1258 1258 155992 196237936
82	61358 2014 651 92197 0.2 24.8 124 1 124 7750 643250
87	63372 13 655 655 0.2 0.2 1 1 1 1 1
92	63385 3187 666 92307 0.20000576 24.80010432 125 64 1296 160768 208276480
93	66572 102 281 7623 0.100043199999 2.000043199999 4 64 64 256 16384
94	66674 102 281 7623 0.100043199999 2.000043199999 4 64 64 256 16384
97	66776 2271 663 92207 0.2 24.8 125 64 1296 160768 208276480
101	69047 2396 661 92205 0.2 24.8 125 28 1278 158500 202528000
102	71443 106 288 7630 0.100043199999 2.000043199999 4 28 28 112 3136
104	71549 7595 644 92931 0.100569039992 24.900469119994 249 1250 1250 311250 389062500
105	79144 7238 644 92931 0.100569039992 24.900469119994 249 1 249 31125 5177125
106	86382 685 4315 89725 1.000611839988 24.000897279976 24 10 10 240 2400
109	87067 7595 642 92929 0.100569039992 24.900469119994 249 1258 1258 313242 394058436
110	94662 7238 642 92929 0.100569039992 24.900469119994 249 1 249 31125 5177125
114	101900 25 310 310 0.100043199999 0.100043199999 1 1 1 1 1
118	101925 26 320 320 0.100048959999 0.100048959999 1 64 64 64 4096
119	101951 7701 282 92924 0.100043199999 24.900469119994 253 64 1296 322960 418240768
120	109652 7701 282 92924 0.100043199999 24.900469119994 253 64 1296 322960 418240768
123	117353 26 318 318 0.100043199999 0.100043199999 1 64 64 64 4096
127	117379 26 317 317 0.100043199999 0.100043199999 1 28 28 28 784
128	117405 7701 289 92925 0.100043199999 24.900469119994 253 28 1278 318334 406690852
130	125106 1980 3029 92306 0.600754559982 24.80004051999 66 0 1250 66250 82812500
131	127086 1878 3029 92306 0.600754559982 24.80004051999 66 1 66 2211 98021
132	128964 661 4921 88947 1.200469119994 24.000040519991 24 1 6 61 187
135	129625 1980 3027 92303 0.600754559982 24.80004051999 66 0 1258 66674 83875892
136	131605 1878 3027 92303 0.600754559982 24.80004051999 66 1 66 2211 98021
140	133483 52 2320 7653 0.600043199999 2.000043199999 2 1 1 2 2
144	133535 54 2329 7662 0.600048959999 2.000048959999 2 64 64 128 8192
145	133589 2099 283 92293 0.100043199999 24.80004051999 70 64 1296 69776 89089280
146	135688 2099 283 92293 0.100043199999 24.80004051999 70 64 1296 69776 89089280
149	137787 54 2327 7660 0.600043199999 2.000043199999 2 64 64 128 8192
153	137841 54 2326 7659 0.600043199999 2.000043199999 2 28 28 56 1568
154	137895 2086 290 92295 0.100043199999 24.80004051999 70 0 1278 67846 86567188
156	139981 3783 1305 92652 0.200611839988 24.800469119994 124 1250 1250 155000 193750000
157	143764 3551 1305 92652 0.200611839988 24.800469119994 124 1 124 7750 643250
158	147315 661 4259 89669 1.000469119994 24.000754559982 24 5 5 120 600
161	147976 3783 1303 92650 0.200611839988 24.800469119994 124 1258 1258 155992 196237936
162	151759 3551 1303 92650 0.200611839988 24.800469119994 124 1 124 7750 643250
166	155310 25 785 785 0.200043199999 0.200043199999 1 1 1 1 1
170	155335 26 793 793 0.200048959999 0.200048959999 1 64 64 64 4096
171	155361 3889 284 92645 0.100043199999 24.800469119994 128 64 1296 160960 208288768
172	159250 3889 284 92645 0.100043199999 24.800469119994 128 64 1296 160960 208288768
175	163139 26 791 791 0.200043199999 0.200043199999 1 64 64 64 4096
179	163165 26 790 790 0.200043199999 0.200043199999 1 28 28 28 784
180	163191 3889 291 92646 0.100043199999 24.800469119994 128 28 1278 158584 202530352
182	167080 106 412 7607 0.100098919998 2.000042199999 4 64 64 256 16384
183	167186 6623 195 92720 0.10000676 24.90010532 250 64 1296 322768 418228480
184	173809 6623 195 92720 0.10000676 24.90010532 250 64 1296 322768 418228480
187	180432 106 409 7599 0.100093159998 2.000036439999 4 64 64 256 16384
193	180538 106 265 7608 0.100042199999 2.000042199999 4 64 64 256 16384
194	180644 1114 2204 91375 0.60000676 24.60010532 42 64 1296 53200 68868352
195	181758 1114 2204 91375 0.60000676 24.60010532 42 64 1296 53200 68868352
198	182872 106 257 7600 0.100036439999 2.000036439999 4 64 64 256 16384
204	182978 106 266 7754 0.100042199999 2.000098919998 4 64 64 256 16384
205	183084 346 7537 88956 2.00000676 24.00010532 13 64 1296 15616 20159488
206	183430 346 7537 88956 2.00000676 24.00010532 13 64 1296 15616 20159488
209	183776 106 258 7751 0.100036439999 2.000093159998 4 64 64 256 16384
215	183882 106 267 7609 0.100042199999 2.000042199999 4 64 64 256 16384
216	183988 3312 668 92311 0.20000676 24.80010532 125 64 1296 160768 208276480
217	187300 3312 668 92311 0.20000676 24.80010532 125 64 1296 160768 208276480
220	190612 106 259 7601 0.100036439999 2.000036439999 4 64 64 256 16384
226	190718 7701 268 92922 0.100042199999 24.900468119994 253 64 1296 322960 418240768
227	198419 26 322 322 0.100049959999 0.100049959999 1 64 64 64 4096
228	198445 26 322 322 0.100049959999 0.100049959999 1 64 64 64 4096
231	198471 7701 260 92911 0.100036439999 24.900363799994 253 64 1296 322960 418240768
237	206172 2099 269 92289 0.100042199999 24.80003951999 70 64 1296 69776 89089280
238	208271 54 2331 7664 0.600049959999 2.000049959999 2 64 64 128 8192
239	208325 54 2331 7664 0.600049959999 2.000049959999 2 64 64 128 8192
242	208379 2099 261 92286 0.100036439999 24.80003375999 70 64 1296 69776 89089280
248	210478 3889 270 92643 0.100042199999 24.800468119994 128 64 1296 160960 208288768
249	214367 26 795 795 0.200049959999 0.200049959999 1 64 64 64 4096
250	214393 26 795 795 0.200049959999 0.200049959999 1 64 64 64 4096
253	214419 3889 262 92577 0.100036439999 24.800363799994 128 64 1296 160960 208288768
259	218308 11 55 55 0 0 1 1 1 1 1
261	218319 81864 60 92914 0.00000576 24.900369559994 2869 64 594 728942 341339186
262	300183 81835 73 92899 0.00001352 24.900363799994 2868 64 594 729055 341435449
263	382018 81835 73 92899 0.00001352 24.900363799994 2868 64 594 729055 341435449
266	463853 77765 59 92913 0 24.900363799994 2869 64 594 728942 341339186
270	541618 77765 58 92912 0 24.900363799994 2869 28 576 667808 315210656
271	619383 81835 74 92900 0.00001352 24.900363799994 2868 28 576 668211 315324589
274	701218 20 66 66 0.00000676 0.00000676 1 1 1 1 1
278	701238 81835 71 92897 0.00001252 24.900362799994 2868 64 594 729055 341435449
279	783073 81864 62 92916 0.00000676 24.900370559994 2869 64 594 728942 341339186
280	864937 81864 62 92916 0.00000676 24.900370559994 2869 64 594 728942 341339186