version 2
run seapp-attacks-0-20170203-10:39:20-15615
attr ber 0
attr configname seapp-attacks
attr datetime 20170203-10:39:20
attr experiment seapp-attacks
attr inifile omnetpp.ini
attr iterationvars $ber=0
attr iterationvars2 "$ber=0, $repetition=0"
attr measurement $ber=0
attr network scenario
attr processid 15615
attr repetition 0
attr replication #0
attr resultdir results
attr runnumber 0
attr seedset 0

vector 11  scenario.client.ppp[0].queue  queueLength:vector  ETV
attr interpolationmode  sample-hold
attr title  "queue length, vector"
vector 12  scenario.client.ppp[0].ppp  txState:vector  ETV
attr interpolationmode  sample-hold
attr title  "tx state, vector"
vector 29  scenario.server.ppp[0].queue  queueLength:vector  ETV
attr interpolationmode  sample-hold
attr title  "queue length, vector"
vector 30  scenario.server.ppp[0].ppp  txState:vector  ETV
attr interpolationmode  sample-hold
attr title  "tx state, vector"
vector 78  scenario.client.tcp  tcpRcvQueueBytes  ETV
vector 65  scenario.client.tcp  "advertised window"  ETV
vector 64  scenario.client.tcp  "receive window"  ETV
vector 67  scenario.client.tcp  "sent ack"  ETV
vector 8  scenario.client.ppp[0].queue  rcvdPk:vector(packetBytes)  ETV
attr interpolationmode  none
attr title  "received packets, vector(packetBytes)"
vector 10  scenario.client.ppp[0].queue  queueingTime:vector  ETV
attr interpolationmode  none
attr title  "queueing time, vector"
vector 17  scenario.client.ppp[0].ppp  rcvdPkFromHL:vector(packetBytes)  ETV
attr interpolationmode  none
attr source  packetReceivedFromUpper
attr title  "packets received from higher layer, vector(packetBytes)"
vector 13  scenario.client.ppp[0].ppp  txPk:vector(packetBytes)  ETV
attr interpolationmode  none
attr source  packetSentToLower
attr title  "packets transmitted, vector(packetBytes)"
vector 32  scenario.server.ppp[0].ppp  rxPkOk:vector(packetBytes)  ETV
attr interpolationmode  none
attr source  rxPkOk
attr title  "packets received OK, vector(packetBytes)"
vector 36  scenario.server.ppp[0].ppp  passedUpPk:vector(packetBytes)  ETV
attr interpolationmode  none
attr source  packetSentToUpper
attr title  "packets passed to higher layer, vector(packetBytes)"
vector 44  scenario.server.tcp  "rcvd seq"  ETV
vector 45  scenario.server.tcp  "rcvd ack"  ETV
vector 41  scenario.server.tcp  "advertised window"  ETV
vector 39  scenario.server.tcp  "send window"  ETV
vector 54  scenario.server.tcp  tcpRcvQueueBytes  ETV
vector 40  scenario.server.tcp  "receive window"  ETV
vector 43  scenario.server.tcp  "sent ack"  ETV
vector 26  scenario.server.ppp[0].queue  rcvdPk:vector(packetBytes)  ETV
attr interpolationmode  none
attr title  "received packets, vector(packetBytes)"
vector 28  scenario.server.ppp[0].queue  queueingTime:vector  ETV
attr interpolationmode  none
attr title  "queueing time, vector"
vector 35  scenario.server.ppp[0].ppp  rcvdPkFromHL:vector(packetBytes)  ETV
attr interpolationmode  none
attr source  packetReceivedFromUpper
attr title  "packets received from higher layer, vector(packetBytes)"
vector 31  scenario.server.ppp[0].ppp  txPk:vector(packetBytes)  ETV
attr interpolationmode  none
attr source  packetSentToLower
attr title  "packets transmitted, vector(packetBytes)"
vector 14  scenario.client.ppp[0].ppp  rxPkOk:vector(packetBytes)  ETV
attr interpolationmode  none
attr source  rxPkOk
attr title  "packets received OK, vector(packetBytes)"
vector 18  scenario.client.ppp[0].ppp  passedUpPk:vector(packetBytes)  ETV
attr interpolationmode  none
attr source  packetSentToUpper
attr title  "packets passed to higher layer, vector(packetBytes)"
vector 68  scenario.client.tcp  "rcvd seq"  ETV
vector 69  scenario.client.tcp  "rcvd ack"  ETV
vector 63  scenario.client.tcp  "send window"  ETV
vector 1  scenario.client.tcpApp[0]  sentPk:vector(packetBytes)  ETV
attr interpolationmode  none
attr source  sentPk
attr title  "packets sent, vector(packetBytes)"
vector 66  scenario.client.tcp  "sent seq"  ETV
vector 70  scenario.client.tcp  "unacked bytes"  ETV
vector 46  scenario.server.tcp  "unacked bytes"  ETV
vector 47  scenario.server.tcp  "rcvd dupAcks"  ETV
vector 19  scenario.server.tcpApp[0]  rcvdPk:vector(packetBytes)  ETV
attr interpolationmode  none
attr source  rcvdPk
attr title  "packets received, vector(packetBytes)"
vector 20  scenario.server.tcpApp[0]  endToEndDelay:vector  ETV
attr interpolationmode  none
attr source  messageAge(rcvdPk)
attr title  "end-to-end delay, vector"
attr unit  s
vector 82  scenario.client.tcp  "measured RTT"  ETV
vector 83  scenario.client.tcp  "smoothed RTT"  ETV
vector 84  scenario.client.tcp  RTTVAR  ETV
vector 85  scenario.client.tcp  RTO  ETV
vector 80  scenario.client.tcp  cwnd  ETV
vector 71  scenario.client.tcp  "rcvd dupAcks"  ETV
vector 37  scenario.server.ppp[0].outputHook[0]  "thruput (bit/sec)"  ETV
vector 38  scenario.server.ppp[0].outputHook[0]  packet/sec  ETV
1	42	0.000082729998	104857600
8	17	0	44
8	43	0.000082729998	40
8	53	0.000082729998	1492
8	89	0.001358259996	1492
8	90	0.001358259996	1492
8	119	0.002596189994	1492
8	120	0.002596189994	1492
8	148	0.003795389994	1492
8	149	0.003795389994	1492
8	177	0.004994589994	1492
8	178	0.004994589994	1492
8	206	0.006193789994	1492
8	207	0.006193789994	1492
8	235	0.007392989994	1492
8	236	0.007392989994	1492
8	264	0.008592189994	1492
8	265	0.008592189994	1492
8	293	0.009791389994	1492
8	294	0.009791389994	1492
8	322	0.010990589994	1492
8	323	0.010990589994	1492
8	351	0.012189789994	1492
8	352	0.012189789994	1492
8	380	0.013388989994	1492
8	381	0.013388989994	1492
8	409	0.014588189994	1492
8	410	0.014588189994	1492
8	438	0.015787389994	1492
8	439	0.015787389994	1492
8	467	0.016986589994	1492
8	468	0.016986589994	1492
8	496	0.018185789994	1492
8	497	0.018185789994	1492
8	525	0.019384989994	1492
8	526	0.019384989994	1492
8	554	0.020584189994	1492
8	555	0.020584189994	1492
8	583	0.021783389994	1492
8	584	0.021783389994	1492
8	612	0.022982589994	1492
8	613	0.022982589994	1492
8	641	0.024181789994	1492
8	642	0.024181789994	1492
8	670	0.025380989994	1492
8	671	0.025380989994	1492
8	699	0.026580189994	1492
8	700	0.026580189994	1492
8	728	0.027779389994	1492
8	729	0.027779389994	1492
8	757	0.028978589994	1492
8	758	0.028978589994	1492
8	786	0.030177789994	1492
8	787	0.030177789994	1492
8	815	0.031376989994	1492
8	816	0.031376989994	1492
8	844	0.032576189994	1492
8	845	0.032576189994	1492
8	873	0.033775389994	1492
8	874	0.033775389994	1492
8	902	0.034974589994	1492
8	903	0.034974589994	1492
8	931	0.036173789994	1492
8	932	0.036173789994	1492
8	960	0.037372989994	1492
8	961	0.037372989994	1492
8	989	0.038572189994	1492
8	990	0.038572189994	1492
8	1018	0.039771389994	1492
8	1019	0.039771389994	1492
8	1047	0.040970589994	1492
8	1048	0.040970589994	1492
8	1076	0.042169789994	1492
8	1077	0.042169789994	1492
8	1105	0.043368989994	1492
8	1106	0.043368989994	1492
8	1134	0.044568189994	1492
8	1135	0.044568189994	1492
8	1163	0.045767389994	1492
8	1164	0.045767389994	1492
8	1192	0.046966589994	1492
8	1193	0.046966589994	1492
8	1221	0.048165789994	1492
8	1222	0.048165789994	1492
8	1250	0.049364989994	1492
8	1251	0.049364989994	1492
8	1279	0.050564189994	1492
8	1280	0.050564189994	1492
8	1308	0.051763389994	1492
8	1309	0.051763389994	1492
8	1337	0.052962589994	1492
8	1338	0.052962589994	1492
8	1363	0.054161789994	1492
8	1388	0.055360989994	1492
8	1413	0.056560189994	1492
8	1438	0.057759389994	1492
8	1463	0.058958589994	1492
8	1488	0.060157789994	1492
8	1513	0.061356989994	1492
8	1538	0.062556189994	1492
8	1563	0.063755389994	1492
8	1588	0.064954589994	1492
8	1613	0.066153789994	1492
8	1638	0.067352989994	1492
8	1663	0.068552189994	1492
8	1688	0.069751389994	1492
8	1713	0.070950589994	1492
8	1738	0.072149789994	1492
8	1763	0.073348989994	1492
8	1788	0.074548189994	1492
8	1813	0.075747389994	1492
8	1838	0.076946589994	1492
8	1863	0.078145789994	1492
8	1888	0.079344989994	1492
8	1913	0.080544189994	1492
8	1938	0.081743389994	1492
8	1963	0.082942589994	1492
8	1988	0.084141789994	1492
8	2013	0.085340989994	1492
8	2038	0.086540189994	1492
8	2063	0.087739389994	1492
8	2088	0.088938589994	1492
8	2113	0.090137789994	1492
8	2138	0.091336989994	1492
8	2163	0.092536189994	1492
8	2188	0.093735389994	1492
8	2213	0.094934589994	1492
8	2238	0.096133789994	1492
8	2263	0.097332989994	1492
8	2288	0.098532189994	1492
8	2313	0.099731389994	1492
8	2338	0.100930589994	1492
8	2363	0.102129789994	1492
8	2388	0.103328989994	1492
8	2413	0.104528189994	1492
8	2438	0.105727389994	1492
8	2463	0.106926589994	1492
8	2488	0.108125789994	1492
8	2513	0.109324989994	1492
8	2538	0.110524189994	1492
8	2563	0.111723389994	1492
8	2588	0.112922589994	1492
8	2613	0.114121789994	1492
8	2638	0.115320989994	1492
8	2663	0.116520189994	1492
8	2688	0.117719389994	1492
8	2713	0.118918589994	1492
8	2738	0.120117789994	1492
8	2763	0.121316989994	1492
8	2788	0.122516189994	1492
8	2813	0.123715389994	1492
8	2838	0.124914589994	1492
8	2863	0.126113789994	1492
8	2888	0.127312989994	1492
8	2913	0.128512189994	1492
8	2938	0.129711389994	1492
8	2963	0.130910589994	1492
8	2988	0.132109789994	1492
8	3013	0.133308989994	1492
8	3038	0.134508189994	1492
8	3063	0.135707389994	1492
8	3088	0.136906589994	1492
8	3113	0.138105789994	1492
8	3138	0.139304989994	1492
8	3163	0.140504189994	1492
8	3188	0.141703389994	1492
8	3213	0.142902589994	1492
8	3238	0.144101789994	1492
8	3263	0.145300989994	1492
8	3288	0.146500189994	1492
8	3313	0.147699389994	1492
8	3338	0.148898589994	1492
8	3363	0.150097789994	1492
8	3388	0.151296989994	1492
8	3413	0.152496189994	1492
8	3438	0.153695389994	1492
8	3463	0.154894589994	1492
8	3488	0.156093789994	1492
8	3513	0.157292989994	1492
8	3538	0.158492189994	1492
8	3563	0.159691389994	1492
8	3588	0.160890589994	1492
8	3613	0.162089789994	1492
8	3638	0.163288989994	1492
8	3663	0.164488189994	1492
8	3688	0.165687389994	1492
8	3713	0.166886589994	1492
8	3738	0.168085789994	1492
8	3763	0.169284989994	1492
8	3788	0.170484189994	1492
8	3813	0.171683389994	1492
8	3838	0.172882589994	1492
8	3863	0.174081789994	1492
8	3888	0.175280989994	1492
8	3913	0.176480189994	1492
8	3938	0.177679389994	1492
8	3963	0.178878589994	1492
8	3988	0.180077789994	1492
8	4013	0.181276989994	1492
8	4038	0.182476189994	1492
8	4063	0.183675389994	1492
8	4088	0.184874589994	1492
8	4113	0.186073789994	1492
8	4138	0.187272989994	1492
8	4163	0.188472189994	1492
8	4188	0.189671389994	1492
8	4213	0.190870589994	1492
8	4238	0.192069789994	1492
8	4263	0.193268989994	1492
8	4288	0.194468189994	1492
8	4313	0.195667389994	1492
8	4338	0.196866589994	1492
8	4363	0.198065789994	1492
8	4388	0.199264989994	1492
8	4413	0.200464189994	1492
8	4438	0.201663389994	1492
8	4463	0.202862589994	1492
8	4488	0.204061789994	1492
8	4513	0.205260989994	1492
8	4538	0.206460189994	1492
8	4563	0.207659389994	1492
8	4588	0.208858589994	1492
8	4613	0.210057789994	1492
8	4638	0.211256989994	1492
8	4663	0.212456189994	1492
8	4688	0.213655389994	1492
8	4713	0.214854589994	1492
8	4738	0.216053789994	1492
8	4763	0.217252989994	1492
8	4788	0.218452189994	1492
8	4813	0.219651389994	1492
8	4838	0.220850589994	1492
8	4863	0.222049789994	1492
8	4888	0.223248989994	1492
8	4913	0.224448189994	1492
8	4938	0.225647389994	1492
8	4963	0.226846589994	1492
8	4988	0.228045789994	1492
8	5013	0.229244989994	1492
8	5038	0.230444189994	1492
8	5063	0.231643389994	1492
8	5088	0.232842589994	1492
8	5113	0.234041789994	1492
8	5138	0.235240989994	1492
8	5163	0.236440189994	1492
8	5188	0.237639389994	1492
8	5213	0.238838589994	1492
8	5238	0.240037789994	1492
8	5263	0.241236989994	1492
8	5288	0.242436189994	1492
8	5313	0.243635389994	1492
8	5338	0.244834589994	1492
8	5363	0.246033789994	1492
8	5388	0.247232989994	1492
8	5413	0.248432189994	1492
8	5438	0.249631389994	1492
8	5463	0.250830589994	1492
8	5488	0.252029789994	1492
8	5513	0.253228989994	1492
8	5538	0.254428189994	1492
8	5563	0.255627389994	1492
8	5588	0.256826589994	1492
8	5613	0.258025789994	1492
8	5638	0.259224989994	1492
8	5663	0.260424189994	1492
8	5688	0.261623389994	1492
8	5713	0.262822589994	1492
8	5738	0.264021789994	1492
8	5763	0.265220989994	1492
8	5788	0.266420189994	1492
8	5813	0.267619389994	1492
8	5838	0.268818589994	1492
8	5863	0.270017789994	1492
8	5888	0.271216989994	1492
8	5913	0.272416189994	1492
8	5938	0.273615389994	1492
8	5963	0.274814589994	1492
8	5988	0.276013789994	1492
8	6013	0.277212989994	1492
8	6038	0.278412189994	1492
8	6063	0.279611389994	1492
8	6088	0.280810589994	1492
8	6113	0.282009789994	1492
8	6138	0.283208989994	1492
8	6163	0.284408189994	1492
8	6188	0.285607389994	1492
8	6213	0.286806589994	1492
8	6238	0.288005789994	1492
8	6263	0.289204989994	1492
8	6288	0.290404189994	1492
8	6313	0.291603389994	1492
8	6338	0.292802589994	1492
8	6363	0.294001789994	1492
8	6388	0.295200989994	1492
8	6413	0.296400189994	1492
8	6438	0.297599389994	1492
8	6463	0.298798589994	1492
8	6488	0.299997789994	1492
8	6513	0.301196989994	1492
8	6538	0.302396189994	1492
8	6563	0.303595389994	1492
8	6588	0.304794589994	1492
8	6613	0.305993789994	1492
8	6638	0.307192989994	1492
8	6663	0.308392189994	1492
8	6688	0.309591389994	1492
8	6713	0.310790589994	1492
8	6738	0.311989789994	1492
8	6763	0.313188989994	1492
8	6788	0.314388189994	1492
8	6813	0.315587389994	1492
8	6838	0.316786589994	1492
8	6863	0.317985789994	1492
8	6888	0.319184989994	1492
8	6913	0.320384189994	1492
8	6938	0.321583389994	1492
8	6963	0.322782589994	1492
8	6988	0.323981789994	1492
8	7013	0.325180989994	1492
8	7038	0.326380189994	1492
8	7063	0.327579389994	1492
8	7088	0.328778589994	1492
8	7113	0.329977789994	1492
8	7138	0.331176989994	1492
8	7163	0.332376189994	1492
8	7188	0.333575389994	1492
8	7213	0.334774589994	1492
8	7238	0.335973789994	1492
8	7263	0.337172989994	1492
8	7288	0.338372189994	1492
8	7313	0.339571389994	1492
8	7338	0.340770589994	1492
8	7363	0.341969789994	1492
8	7388	0.343168989994	1492
8	7413	0.344368189994	1492
8	7438	0.345567389994	1492
8	7463	0.346766589994	1492
8	7488	0.347965789994	1492
8	7513	0.349164989994	1492
8	7538	0.350364189994	1492
8	7563	0.351563389994	1492
8	7588	0.352762589994	1492
8	7613	0.353961789994	1492
8	7638	0.355160989994	1492
8	7663	0.356360189994	1492
8	7688	0.357559389994	1492
8	7713	0.358758589994	1492
8	7738	0.359957789994	1492
8	7763	0.361156989994	1492
8	7788	0.362356189994	1492
8	7813	0.363555389994	1492
8	7838	0.364754589994	1492
8	7863	0.365953789994	1492
8	7888	0.367152989994	1492
8	7913	0.368352189994	1492
8	7938	0.369551389994	1492
8	7963	0.370750589994	1492
8	7988	0.371949789994	1492
8	8013	0.373148989994	1492
8	8038	0.374348189994	1492
8	8063	0.375547389994	1492
8	8088	0.376746589994	1492
8	8113	0.377945789994	1492
8	8138	0.379144989994	1492
8	8163	0.380344189994	1492
8	8188	0.381543389994	1492
8	8213	0.382742589994	1492
8	8238	0.383941789994	1492
8	8263	0.385140989994	1492
8	8288	0.386340189994	1492
8	8313	0.387539389994	1492
8	8338	0.388738589994	1492
8	8363	0.389937789994	1492
8	8388	0.391136989994	1492
8	8413	0.392336189994	1492
8	8438	0.393535389994	1492
8	8463	0.394734589994	1492
8	8488	0.395933789994	1492
8	8513	0.397132989994	1492
8	8538	0.398332189994	1492
8	8563	0.399531389994	1492
8	8588	0.400730589994	1492
8	8613	0.401929789994	1492
8	8638	0.403128989994	1492
8	8663	0.404328189994	1492
8	8688	0.405527389994	1492
8	8713	0.406726589994	1492
8	8738	0.407925789994	1492
8	8763	0.409124989994	1492
8	8788	0.410324189994	1492
8	8813	0.411523389994	1492
8	8838	0.412722589994	1492
8	8863	0.413921789994	1492
8	8888	0.415120989994	1492
8	8913	0.416320189994	1492
8	8938	0.417519389994	1492
8	8963	0.418718589994	1492
8	8988	0.419917789994	1492
8	9013	0.421116989994	1492
8	9038	0.422316189994	1492
8	9063	0.423515389994	1492
8	9088	0.424714589994	1492
8	9113	0.425913789994	1492
8	9138	0.427112989994	1492
8	9163	0.428312189994	1492
8	9188	0.429511389994	1492
8	9213	0.430710589994	1492
8	9238	0.431909789994	1492
8	9263	0.433108989994	1492
8	9288	0.434308189994	1492
8	9313	0.435507389994	1492
8	9338	0.436706589994	1492
8	9363	0.437905789994	1492
8	9388	0.439104989994	1492
8	9413	0.440304189994	1492
8	9438	0.441503389994	1492
8	9463	0.442702589994	1492
8	9488	0.443901789994	1492
8	9513	0.445100989994	1492
8	9538	0.446300189994	1492
8	9563	0.447499389994	1492
8	9588	0.448698589994	1492
8	9613	0.449897789994	1492
8	9638	0.451096989994	1492
8	9663	0.452296189994	1492
8	9688	0.453495389994	1492
8	9713	0.454694589994	1492
8	9738	0.455893789994	1492
8	9763	0.457092989994	1492
8	9788	0.458292189994	1492
8	9813	0.459491389994	1492
8	9838	0.460690589994	1492
8	9863	0.461889789994	1492
8	9888	0.463088989994	1492
8	9913	0.464288189994	1492
8	9938	0.465487389994	1492
8	9963	0.466686589994	1492
8	9988	0.467885789994	1492
8	10013	0.469084989994	1492
8	10038	0.470284189994	1492
8	10063	0.471483389994	1492
8	10088	0.472682589994	1492
8	10113	0.473881789994	1492
8	10138	0.475080989994	1492
8	10163	0.476280189994	1492
8	10188	0.477479389994	1492
8	10213	0.478678589994	1492
8	10238	0.479877789994	1492
8	10263	0.481076989994	1492
8	10288	0.482276189994	1492
8	10313	0.483475389994	1492
8	10338	0.484674589994	1492
8	10363	0.485873789994	1492
8	10388	0.487072989994	1492
8	10413	0.488272189994	1492
8	10438	0.489471389994	1492
8	10463	0.490670589994	1492
8	10488	0.491869789994	1492
8	10513	0.493068989994	1492
8	10538	0.494268189994	1492
8	10563	0.495467389994	1492
8	10588	0.496666589994	1492
8	10613	0.497865789994	1492
8	10638	0.499064989994	1492
8	10663	0.500264189994	1492
8	10688	0.501463389994	1492
8	10713	0.502662589994	1492
8	10738	0.503861789994	1492
8	10763	0.505060989994	1492
8	10788	0.506260189994	1492
8	10813	0.507459389994	1492
8	10838	0.508658589994	1492
8	10863	0.509857789994	1492
8	10888	0.511056989994	1492
8	10913	0.512256189994	1492
8	10938	0.513455389994	1492
8	10963	0.514654589994	1492
8	10988	0.515853789994	1492
8	11013	0.517052989994	1492
8	11038	0.518252189994	1492
8	11063	0.519451389994	1492
8	11088	0.520650589994	1492
8	11113	0.521849789994	1492
8	11138	0.523048989994	1492
8	11163	0.524248189994	1492
8	11188	0.525447389994	1492
8	11213	0.526646589994	1492
8	11238	0.527845789994	1492
8	11263	0.529044989994	1492
8	11288	0.530244189994	1492
8	11313	0.531443389994	1492
8	11338	0.532642589994	1492
8	11363	0.533841789994	1492
8	11388	0.535040989994	1492
8	11413	0.536240189994	1492
8	11438	0.537439389994	1492
8	11463	0.538638589994	1492
8	11488	0.539837789994	1492
8	11513	0.541036989994	1492
8	11538	0.542236189994	1492
8	11563	0.543435389994	1492
8	11588	0.544634589994	1492
8	11613	0.545833789994	1492
8	11638	0.547032989994	1492
8	11663	0.548232189994	1492
8	11688	0.549431389994	1492
8	11713	0.550630589994	1492
8	11738	0.551829789994	1492
8	11763	0.553028989994	1492
8	11788	0.554228189994	1492
8	11813	0.555427389994	1492
8	11838	0.556626589994	1492
8	11863	0.557825789994	1492
8	11888	0.559024989994	1492
8	11913	0.560224189994	1492
8	11938	0.561423389994	1492
8	11963	0.562622589994	1492
8	11988	0.563821789994	1492
8	12013	0.565020989994	1492
8	12038	0.566220189994	1492
8	12063	0.567419389994	1492
8	12088	0.568618589994	1492
8	12113	0.569817789994	1492
8	12138	0.571016989994	1492
8	12163	0.572216189994	1492
8	12188	0.573415389994	1492
8	12213	0.574614589994	1492
8	12238	0.575813789994	1492
8	12263	0.577012989994	1492
8	12288	0.578212189994	1492
8	12313	0.579411389994	1492
8	12338	0.580610589994	1492
8	12363	0.581809789994	1492
8	12388	0.583008989994	1492
8	12413	0.584208189994	1492
8	12438	0.585407389994	1492
8	12463	0.586606589994	1492
8	12488	0.587805789994	1492
8	12513	0.589004989994	1492
8	12538	0.590204189994	1492
8	12563	0.591403389994	1492
8	12588	0.592602589994	1492
8	12613	0.593801789994	1492
8	12638	0.595000989994	1492
8	12663	0.596200189994	1492
8	12688	0.597399389994	1492
8	12713	0.598598589994	1492
8	12738	0.599797789994	1492
8	12763	0.600996989994	1492
8	12788	0.602196189994	1492
8	12813	0.603395389994	1492
8	12838	0.604594589994	1492
8	12863	0.605793789994	1492
8	12888	0.606992989994	1492
8	12913	0.608192189994	1492
8	12938	0.609391389994	1492
8	12963	0.610590589994	1492
8	12988	0.611789789994	1492
8	13013	0.612988989994	1492
8	13038	0.614188189994	1492
8	13063	0.615387389994	1492
8	13088	0.616586589994	1492
8	13113	0.617785789994	1492
8	13138	0.618984989994	1492
8	13163	0.620184189994	1492
8	13188	0.621383389994	1492
8	13213	0.622582589994	1492
8	13238	0.623781789994	1492
8	13263	0.624980989994	1492
8	13288	0.626180189994	1492
8	13313	0.627379389994	1492
8	13338	0.628578589994	1492
8	13363	0.629777789994	1492
8	13388	0.630976989994	1492
8	13413	0.632176189994	1492
8	13438	0.633375389994	1492
8	13463	0.634574589994	1492
8	13488	0.635773789994	1492
8	13513	0.636972989994	1492
8	13538	0.638172189994	1492
8	13563	0.639371389994	1492
8	13588	0.640570589994	1492
8	13613	0.641769789994	1492
8	13638	0.642968989994	1492
8	13663	0.644168189994	1492
8	13688	0.645367389994	1492
8	13713	0.646566589994	1492
8	13738	0.647765789994	1492
8	13763	0.648964989994	1492
8	13788	0.650164189994	1492
8	13813	0.651363389994	1492
8	13838	0.652562589994	1492
8	13863	0.653761789994	1492
8	13888	0.654960989994	1492
8	13913	0.656160189994	1492
8	13938	0.657359389994	1492
8	13963	0.658558589994	1492
8	13988	0.659757789994	1492
8	14013	0.660956989994	1492
8	14038	0.662156189994	1492
8	14063	0.663355389994	1492
8	14088	0.664554589994	1492
8	14113	0.665753789994	1492
8	14138	0.666952989994	1492
8	14163	0.668152189994	1492
8	14188	0.669351389994	1492
8	14213	0.670550589994	1492
8	14238	0.671749789994	1492
8	14263	0.672948989994	1492
8	14288	0.674148189994	1492
8	14313	0.675347389994	1492
8	14338	0.676546589994	1492
8	14363	0.677745789994	1492
8	14388	0.678944989994	1492
8	14413	0.680144189994	1492
8	14438	0.681343389994	1492
8	14463	0.682542589994	1492
8	14488	0.683741789994	1492
8	14513	0.684940989994	1492
8	14538	0.686140189994	1492
8	14563	0.687339389994	1492
8	14588	0.688538589994	1492
8	14613	0.689737789994	1492
8	14638	0.690936989994	1492
8	14663	0.692136189994	1492
8	14688	0.693335389994	1492
8	14713	0.694534589994	1492
8	14738	0.695733789994	1492
8	14763	0.696932989994	1492
8	14788	0.698132189994	1492
8	14813	0.699331389994	1492
8	14838	0.700530589994	1492
8	14863	0.701729789994	1492
8	14888	0.702928989994	1492
8	14913	0.704128189994	1492
8	14938	0.705327389994	1492
8	14963	0.706526589994	1492
8	14988	0.707725789994	1492
8	15013	0.708924989994	1492
8	15038	0.710124189994	1492
8	15063	0.711323389994	1492
8	15088	0.712522589994	1492
8	15113	0.713721789994	1492
8	15138	0.714920989994	1492
8	15163	0.716120189994	1492
8	15188	0.717319389994	1492
8	15213	0.718518589994	1492
8	15238	0.719717789994	1492
8	15263	0.720916989994	1492
8	15288	0.722116189994	1492
8	15313	0.723315389994	1492
8	15338	0.724514589994	1492
8	15363	0.725713789994	1492
8	15388	0.726912989994	1492
8	15413	0.728112189994	1492
8	15438	0.729311389994	1492
8	15463	0.730510589994	1492
8	15488	0.731709789994	1492
8	15513	0.732908989994	1492
8	15538	0.734108189994	1492
8	15563	0.735307389994	1492
8	15588	0.736506589994	1492
8	15613	0.737705789994	1492
8	15638	0.738904989994	1492
8	15663	0.740104189994	1492
8	15688	0.741303389994	1492
8	15713	0.742502589994	1492
8	15738	0.743701789994	1492
8	15763	0.744900989994	1492
8	15788	0.746100189994	1492
8	15813	0.747299389994	1492
8	15838	0.748498589994	1492
8	15863	0.749697789994	1492
8	15888	0.750896989994	1492
8	15913	0.752096189994	1492
8	15938	0.753295389994	1492
8	15963	0.754494589994	1492
8	15988	0.755693789994	1492
8	16013	0.756892989994	1492
8	16038	0.758092189994	1492
8	16063	0.759291389994	1492
8	16088	0.760490589994	1492
8	16113	0.761689789994	1492
8	16138	0.762888989994	1492
8	16163	0.764088189994	1492
8	16188	0.765287389994	1492
8	16213	0.766486589994	1492
8	16238	0.767685789994	1492
8	16263	0.768884989994	1492
8	16288	0.770084189994	1492
8	16313	0.771283389994	1492
8	16338	0.772482589994	1492
8	16363	0.773681789994	1492
8	16388	0.774880989994	1492
8	16413	0.776080189994	1492
8	16438	0.777279389994	1492
8	16463	0.778478589994	1492
8	16488	0.779677789994	1492
8	16513	0.780876989994	1492
8	16538	0.782076189994	1492
8	16563	0.783275389994	1492
8	16588	0.784474589994	1492
8	16613	0.785673789994	1492
8	16638	0.786872989994	1492
8	16663	0.788072189994	1492
8	16688	0.789271389994	1492
8	16713	0.790470589994	1492
8	16738	0.791669789994	1492
8	16763	0.792868989994	1492
8	16788	0.794068189994	1492
8	16813	0.795267389994	1492
8	16838	0.796466589994	1492
8	16863	0.797665789994	1492
8	16888	0.798864989994	1492
8	16913	0.800064189994	1492
8	16938	0.801263389994	1492
8	16963	0.802462589994	1492
8	16988	0.803661789994	1492
8	17013	0.804860989994	1492
8	17038	0.806060189994	1492
8	17063	0.807259389994	1492
8	17088	0.808458589994	1492
8	17113	0.809657789994	1492
8	17138	0.810856989994	1492
8	17163	0.812056189994	1492
8	17188	0.813255389994	1492
8	17213	0.814454589994	1492
8	17238	0.815653789994	1492
8	17263	0.816852989994	1492
8	17288	0.818052189994	1492
8	17313	0.819251389994	1492
8	17338	0.820450589994	1492
8	17363	0.821649789994	1492
8	17388	0.822848989994	1492
8	17413	0.824048189994	1492
8	17438	0.825247389994	1492
8	17463	0.826446589994	1492
8	17488	0.827645789994	1492
8	17513	0.828844989994	1492
8	17538	0.830044189994	1492
8	17563	0.831243389994	1492
8	17588	0.832442589994	1492
8	17613	0.833641789994	1492
8	17638	0.834840989994	1492
8	17663	0.836040189994	1492
8	17688	0.837239389994	1492
8	17713	0.838438589994	1492
8	17738	0.839637789994	1492
8	17763	0.840836989994	1492
8	17788	0.842036189994	1492
8	17813	0.843235389994	1492
8	17838	0.844434589994	1492
8	17863	0.845633789994	1492
8	17888	0.846832989994	1492
8	17913	0.848032189994	1492
8	17938	0.849231389994	1492
8	17963	0.850430589994	1492
8	17988	0.851629789994	1492
8	18013	0.852828989994	1492
8	18038	0.854028189994	1492
8	18063	0.855227389994	1492
8	18088	0.856426589994	1492
8	18113	0.857625789994	1492
8	18138	0.858824989994	1492
8	18163	0.860024189994	1492
8	18188	0.861223389994	1492
8	18213	0.862422589994	1492
8	18238	0.863621789994	1492
8	18263	0.864820989994	1492
8	18288	0.866020189994	1492
8	18313	0.867219389994	1492
8	18338	0.868418589994	1492
8	18363	0.869617789994	1492
8	18388	0.870816989994	1492
8	18413	0.872016189994	1492
8	18438	0.873215389994	1492
8	18463	0.874414589994	1492
8	18488	0.875613789994	1492
8	18513	0.876812989994	1492
8	18538	0.878012189994	1492
8	18563	0.879211389994	1492
8	18588	0.880410589994	1492
8	18613	0.881609789994	1492
8	18638	0.882808989994	1492
8	18663	0.884008189994	1492
8	18688	0.885207389994	1492
8	18713	0.886406589994	1492
8	18738	0.887605789994	1492
8	18763	0.888804989994	1492
8	18788	0.890004189994	1492
8	18813	0.891203389994	1492
8	18838	0.892402589994	1492
8	18863	0.893601789994	1492
8	18888	0.894800989994	1492
8	18913	0.896000189994	1492
8	18938	0.897199389994	1492
8	18963	0.898398589994	1492
8	18988	0.899597789994	1492
8	19013	0.900796989994	1492
8	19038	0.901996189994	1492
8	19063	0.903195389994	1492
8	19088	0.904394589994	1492
8	19113	0.905593789994	1492
8	19138	0.906792989994	1492
8	19163	0.907992189994	1492
8	19188	0.909191389994	1492
8	19213	0.910390589994	1492
8	19238	0.911589789994	1492
8	19263	0.912788989994	1492
8	19288	0.913988189994	1492
8	19313	0.915187389994	1492
8	19338	0.916386589994	1492
8	19363	0.917585789994	1492
8	19388	0.918784989994	1492
8	19413	0.919984189994	1492
8	19438	0.921183389994	1492
8	19463	0.922382589994	1492
8	19488	0.923581789994	1492
8	19513	0.924780989994	1492
8	19538	0.925980189994	1492
8	19563	0.927179389994	1492
8	19588	0.928378589994	1492
8	19613	0.929577789994	1492
8	19638	0.930776989994	1492
8	19663	0.931976189994	1492
8	19688	0.933175389994	1492
8	19713	0.934374589994	1492
8	19738	0.935573789994	1492
8	19763	0.936772989994	1492
8	19788	0.937972189994	1492
8	19813	0.939171389994	1492
8	19838	0.940370589994	1492
8	19863	0.941569789994	1492
8	19888	0.942768989994	1492
8	19913	0.943968189994	1492
8	19938	0.945167389994	1492
8	19963	0.946366589994	1492
8	19988	0.947565789994	1492
8	20013	0.948764989994	1492
8	20038	0.949964189994	1492
8	20063	0.951163389994	1492
8	20088	0.952362589994	1492
8	20113	0.953561789994	1492
8	20138	0.954760989994	1492
8	20163	0.955960189994	1492
8	20188	0.957159389994	1492
8	20213	0.958358589994	1492
8	20238	0.959557789994	1492
8	20263	0.960756989994	1492
8	20288	0.961956189994	1492
8	20313	0.963155389994	1492
8	20338	0.964354589994	1492
8	20363	0.965553789994	1492
8	20388	0.966752989994	1492
8	20413	0.967952189994	1492
8	20438	0.969151389994	1492
8	20463	0.970350589994	1492
8	20488	0.971549789994	1492
8	20513	0.972748989994	1492
8	20538	0.973948189994	1492
8	20563	0.975147389994	1492
8	20588	0.976346589994	1492
8	20613	0.977545789994	1492
8	20638	0.978744989994	1492
8	20663	0.979944189994	1492
8	20688	0.981143389994	1492
8	20713	0.982342589994	1492
8	20738	0.983541789994	1492
8	20763	0.984740989994	1492
8	20788	0.985940189994	1492
8	20813	0.987139389994	1492
8	20838	0.988338589994	1492
8	20863	0.989537789994	1492
8	20888	0.990736989994	1492
8	20913	0.991936189994	1492
8	20938	0.993135389994	1492
8	20963	0.994334589994	1492
8	20988	0.995533789994	1492
8	21013	0.996732989994	1492
8	21038	0.997932189994	1492
8	21063	0.999131389994	1492
8	21088	1.000330589994	1492
8	21113	1.001529789994	1492
8	21138	1.002728989994	1492
8	21163	1.003928189994	1492
8	21188	1.005127389994	1492
8	21213	1.006326589994	1492
8	21238	1.007525789994	1492
8	21263	1.008724989994	1492
8	21288	1.009924189994	1492
8	21313	1.011123389994	1492
8	21338	1.012322589994	1492
8	21363	1.013521789994	1492
8	21388	1.014720989994	1492
8	21413	1.015920189994	1492
8	21438	1.017119389994	1492
8	21463	1.018318589994	1492
8	21488	1.019517789994	1492
8	21513	1.020716989994	1492
8	21538	1.021916189994	1492
8	21563	1.023115389994	1492
8	21588	1.024314589994	1492
8	21613	1.025513789994	1492
8	21638	1.026712989994	1492
8	21663	1.027912189994	1492
8	21688	1.029111389994	1492
8	21713	1.030310589994	1492
8	21738	1.031509789994	1492
8	21763	1.032708989994	1492
8	21788	1.033908189994	1492
8	21813	1.035107389994	1492
8	21838	1.036306589994	1492
8	21863	1.037505789994	1492
8	21888	1.038704989994	1492