file 918994 1485162938                                          
version 2
run attack_dc-0-20170123-10:15:27-16117
attr configname attack_dc
attr datetime 20170123-10:15:27
attr experiment attack_dc
attr inifile omnetpp.ini
attr iterationvars ""
attr iterationvars2 $repetition=0
attr measurement ""
attr network Topo
attr processid 16117
attr repetition 0
attr replication #0
attr resultdir results
attr runnumber 0
attr seedset 0

vector 759  Topo.s1.tcp  tcpRcvQueueBytes  ETV
vector 746  Topo.s1.tcp  "advertised window"  ETV
vector 745  Topo.s1.tcp  "receive window"  ETV
vector 748  Topo.s1.tcp  "sent ack"  ETV
vector 783  Topo.s2.tcp  tcpRcvQueueBytes  ETV
vector 770  Topo.s2.tcp  "advertised window"  ETV
vector 769  Topo.s2.tcp  "receive window"  ETV
vector 772  Topo.s2.tcp  "sent ack"  ETV
vector 807  Topo.s3.tcp  tcpRcvQueueBytes  ETV
vector 794  Topo.s3.tcp  "advertised window"  ETV
vector 793  Topo.s3.tcp  "receive window"  ETV
vector 796  Topo.s3.tcp  "sent ack"  ETV
vector 831  Topo.s4.tcp  tcpRcvQueueBytes  ETV
vector 818  Topo.s4.tcp  "advertised window"  ETV
vector 817  Topo.s4.tcp  "receive window"  ETV
vector 820  Topo.s4.tcp  "sent ack"  ETV
vector 855  Topo.s5.tcp  tcpRcvQueueBytes  ETV
vector 842  Topo.s5.tcp  "advertised window"  ETV
vector 841  Topo.s5.tcp  "receive window"  ETV
vector 844  Topo.s5.tcp  "sent ack"  ETV
vector 879  Topo.s6.tcp  tcpRcvQueueBytes  ETV
vector 866  Topo.s6.tcp  "advertised window"  ETV
vector 865  Topo.s6.tcp  "receive window"  ETV
vector 868  Topo.s6.tcp  "sent ack"  ETV
vector 903  Topo.s7.tcp  tcpRcvQueueBytes  ETV
vector 890  Topo.s7.tcp  "advertised window"  ETV
vector 889  Topo.s7.tcp  "receive window"  ETV
vector 892  Topo.s7.tcp  "sent ack"  ETV
vector 927  Topo.s8.tcp  tcpRcvQueueBytes  ETV
vector 914  Topo.s8.tcp  "advertised window"  ETV
vector 913  Topo.s8.tcp  "receive window"  ETV
vector 916  Topo.s8.tcp  "sent ack"  ETV
vector 951  Topo.RTU1.tcp  tcpRcvQueueBytes  ETV
vector 938  Topo.RTU1.tcp  "advertised window"  ETV
vector 937  Topo.RTU1.tcp  "receive window"  ETV
vector 940  Topo.RTU1.tcp  "sent ack"  ETV
vector 975  Topo.RTU2.tcp  tcpRcvQueueBytes  ETV
vector 962  Topo.RTU2.tcp  "advertised window"  ETV
vector 961  Topo.RTU2.tcp  "receive window"  ETV
vector 964  Topo.RTU2.tcp  "sent ack"  ETV
vector 999  Topo.DC1.tcp  tcpRcvQueueBytes  ETV
vector 986  Topo.DC1.tcp  "advertised window"  ETV
vector 985  Topo.DC1.tcp  "receive window"  ETV
vector 988  Topo.DC1.tcp  "sent ack"  ETV
vector 1023  Topo.DC2.tcp  tcpRcvQueueBytes  ETV
vector 1010  Topo.DC2.tcp  "advertised window"  ETV
vector 1009  Topo.DC2.tcp  "receive window"  ETV
vector 1012  Topo.DC2.tcp  "sent ack"  ETV
vector 1047  Topo.DC3.tcp  tcpRcvQueueBytes  ETV
vector 1034  Topo.DC3.tcp  "advertised window"  ETV
vector 1033  Topo.DC3.tcp  "receive window"  ETV
vector 1036  Topo.DC3.tcp  "sent ack"  ETV
vector 1071  Topo.DC4.tcp  tcpRcvQueueBytes  ETV
vector 1058  Topo.DC4.tcp  "advertised window"  ETV
vector 1057  Topo.DC4.tcp  "receive window"  ETV
vector 1060  Topo.DC4.tcp  "sent ack"  ETV
vector 33  Topo.s1.networkLayer.arp  sentReq:vector  ETV
attr title  "ARP request sent, vector"
vector 91  Topo.s2.networkLayer.arp  sentReq:vector  ETV
attr title  "ARP request sent, vector"
vector 149  Topo.s3.networkLayer.arp  sentReq:vector  ETV
attr title  "ARP request sent, vector"
vector 196  Topo.s4.networkLayer.arp  sentReq:vector  ETV
attr title  "ARP request sent, vector"
vector 243  Topo.s5.networkLayer.arp  sentReq:vector  ETV
attr title  "ARP request sent, vector"
vector 301  Topo.s6.networkLayer.arp  sentReq:vector  ETV
attr title  "ARP request sent, vector"
vector 359  Topo.s7.networkLayer.arp  sentReq:vector  ETV
attr title  "ARP request sent, vector"
vector 395  Topo.s8.networkLayer.arp  sentReq:vector  ETV
attr title  "ARP request sent, vector"
vector 531  Topo.RTU1.networkLayer.arp  sentReq:vector  ETV
attr title  "ARP request sent, vector"
vector 551  Topo.RTU2.networkLayer.arp  sentReq:vector  ETV
attr title  "ARP request sent, vector"
vector 571  Topo.DC1.networkLayer.arp  sentReq:vector  ETV
attr title  "ARP request sent, vector"
vector 591  Topo.DC2.networkLayer.arp  sentReq:vector  ETV
attr title  "ARP request sent, vector"
vector 611  Topo.DC3.networkLayer.arp  sentReq:vector  ETV
attr title  "ARP request sent, vector"
vector 631  Topo.DC4.networkLayer.arp  sentReq:vector  ETV
attr title  "ARP request sent, vector"
vector 44  Topo.s1.eth[0].encap  encapPk:vector(packetBytes)  ETV
attr interpolationmode  none
attr source  encapPk
attr title  "packets encapsulated, vector(packetBytes)"
vector 102  Topo.s2.eth[0].encap  encapPk:vector(packetBytes)  ETV
attr interpolationmode  none
attr source  encapPk
attr title  "packets encapsulated, vector(packetBytes)"
vector 160  Topo.s3.eth[0].encap  encapPk:vector(packetBytes)  ETV
attr interpolationmode  none
attr source  encapPk
attr title  "packets encapsulated, vector(packetBytes)"
vector 207  Topo.s4.eth[0].encap  encapPk:vector(packetBytes)  ETV
attr interpolationmode  none
attr source  encapPk
attr title  "packets encapsulated, vector(packetBytes)"
vector 254  Topo.s5.eth[0].encap  encapPk:vector(packetBytes)  ETV
attr interpolationmode  none
attr source  encapPk
attr title  "packets encapsulated, vector(packetBytes)"
vector 312  Topo.s6.eth[0].encap  encapPk:vector(packetBytes)  ETV
attr interpolationmode  none
attr source  encapPk
attr title  "packets encapsulated, vector(packetBytes)"
vector 370  Topo.s7.eth[0].encap  encapPk:vector(packetBytes)  ETV
attr interpolationmode  none
attr source  encapPk
attr title  "packets encapsulated, vector(packetBytes)"
vector 406  Topo.s8.eth[0].encap  encapPk:vector(packetBytes)  ETV
attr interpolationmode  none
attr source  encapPk
attr title  "packets encapsulated, vector(packetBytes)"
vector 545  Topo.RTU1.eth[0].encap  encapPk:vector(packetBytes)  ETV
attr interpolationmode  none
attr source  encapPk
attr title  "packets encapsulated, vector(packetBytes)"
vector 565  Topo.RTU2.eth[0].encap  encapPk:vector(packetBytes)  ETV
attr interpolationmode  none
attr source  encapPk
attr title  "packets encapsulated, vector(packetBytes)"
vector 585  Topo.DC1.eth[0].encap  encapPk:vector(packetBytes)  ETV
attr interpolationmode  none
attr source  encapPk
attr title  "packets encapsulated, vector(packetBytes)"
vector 605  Topo.DC2.eth[0].encap  encapPk:vector(packetBytes)  ETV
attr interpolationmode  none
attr source  encapPk
attr title  "packets encapsulated, vector(packetBytes)"
vector 625  Topo.DC3.eth[0].encap  encapPk:vector(packetBytes)  ETV
attr interpolationmode  none
attr source  encapPk
attr title  "packets encapsulated, vector(packetBytes)"
vector 645  Topo.DC4.eth[0].encap  encapPk:vector(packetBytes)  ETV
attr interpolationmode  none
attr source  encapPk
attr title  "packets encapsulated, vector(packetBytes)"
vector 40  Topo.s1.eth[0].mac  rxPkFromHL:vector(packetBytes)  ETV
attr interpolationmode  none
attr source  rxPkFromHL
attr title  "packet bytes from higher layer, vector(packetBytes)"
vector 98  Topo.s2.eth[0].mac  rxPkFromHL:vector(packetBytes)  ETV
attr interpolationmode  none
attr source  rxPkFromHL
attr title  "packet bytes from higher layer, vector(packetBytes)"
vector 156  Topo.s3.eth[0].mac  rxPkFromHL:vector(packetBytes)  ETV
attr interpolationmode  none
attr source  rxPkFromHL
attr title  "packet bytes from higher layer, vector(packetBytes)"
vector 203  Topo.s4.eth[0].mac  rxPkFromHL:vector(packetBytes)  ETV
attr interpolationmode  none
attr source  rxPkFromHL
attr title  "packet bytes from higher layer, vector(packetBytes)"
vector 250  Topo.s5.eth[0].mac  rxPkFromHL:vector(packetBytes)  ETV
attr interpolationmode  none
attr source  rxPkFromHL
attr title  "packet bytes from higher layer, vector(packetBytes)"
vector 308  Topo.s6.eth[0].mac  rxPkFromHL:vector(packetBytes)  ETV
attr interpolationmode  none
attr source  rxPkFromHL
attr title  "packet bytes from higher layer, vector(packetBytes)"
vector 366  Topo.s7.eth[0].mac  rxPkFromHL:vector(packetBytes)  ETV
attr interpolationmode  none
attr source  rxPkFromHL
attr title  "packet bytes from higher layer, vector(packetBytes)"
vector 402  Topo.s8.eth[0].mac  rxPkFromHL:vector(packetBytes)  ETV
attr interpolationmode  none
attr source  rxPkFromHL
attr title  "packet bytes from higher layer, vector(packetBytes)"
vector 541  Topo.RTU1.eth[0].mac  rxPkFromHL:vector(packetBytes)  ETV
attr interpolationmode  none
attr source  rxPkFromHL
attr title  "packet bytes from higher layer, vector(packetBytes)"
vector 561  Topo.RTU2.eth[0].mac  rxPkFromHL:vector(packetBytes)  ETV
attr interpolationmode  none
attr source  rxPkFromHL
attr title  "packet bytes from higher layer, vector(packetBytes)"
vector 581  Topo.DC1.eth[0].mac  rxPkFromHL:vector(packetBytes)  ETV
attr interpolationmode  none
attr source  rxPkFromHL
attr title  "packet bytes from higher layer, vector(packetBytes)"
vector 601  Topo.DC2.eth[0].mac  rxPkFromHL:vector(packetBytes)  ETV
attr interpolationmode  none
attr source  rxPkFromHL
attr title  "packet bytes from higher layer, vector(packetBytes)"
vector 621  Topo.DC3.eth[0].mac  rxPkFromHL:vector(packetBytes)  ETV
attr interpolationmode  none
attr source  rxPkFromHL
attr title  "packet bytes from higher layer, vector(packetBytes)"
vector 641  Topo.DC4.eth[0].mac  rxPkFromHL:vector(packetBytes)  ETV
attr interpolationmode  none
attr source  rxPkFromHL
attr title  "packet bytes from higher layer, vector(packetBytes)"
vector 35  Topo.s1.eth[0].mac  txPk:vector(packetBytes)  ETV
attr interpolationmode  none
attr source  txPk
attr title  "packets transmitted, vector(packetBytes)"
vector 93  Topo.s2.eth[0].mac  txPk:vector(packetBytes)  ETV
attr interpolationmode  none
attr source  txPk
attr title  "packets transmitted, vector(packetBytes)"
vector 151  Topo.s3.eth[0].mac  txPk:vector(packetBytes)  ETV
attr interpolationmode  none
attr source  txPk
attr title  "packets transmitted, vector(packetBytes)"
vector 198  Topo.s4.eth[0].mac  txPk:vector(packetBytes)  ETV
attr interpolationmode  none
attr source  txPk
attr title  "packets transmitted, vector(packetBytes)"
vector 245  Topo.s5.eth[0].mac  txPk:vector(packetBytes)  ETV
attr interpolationmode  none
attr source  txPk
attr title  "packets transmitted, vector(packetBytes)"
vector 303  Topo.s6.eth[0].mac  txPk:vector(packetBytes)  ETV
attr interpolationmode  none
attr source  txPk
attr title  "packets transmitted, vector(packetBytes)"
vector 361  Topo.s7.eth[0].mac  txPk:vector(packetBytes)  ETV
attr interpolationmode  none
attr source  txPk
attr title  "packets transmitted, vector(packetBytes)"
vector 397  Topo.s8.eth[0].mac  txPk:vector(packetBytes)  ETV
attr interpolationmode  none
attr source  txPk
attr title  "packets transmitted, vector(packetBytes)"
vector 536  Topo.RTU1.eth[0].mac  txPk:vector(packetBytes)  ETV
attr interpolationmode  none
attr source  txPk
attr title  "packets transmitted, vector(packetBytes)"
vector 556  Topo.RTU2.eth[0].mac  txPk:vector(packetBytes)  ETV
attr interpolationmode  none
attr source  txPk
attr title  "packets transmitted, vector(packetBytes)"
vector 576  Topo.DC1.eth[0].mac  txPk:vector(packetBytes)  ETV
attr interpolationmode  none
attr source  txPk
attr title  "packets transmitted, vector(packetBytes)"
vector 596  Topo.DC2.eth[0].mac  txPk:vector(packetBytes)  ETV
attr interpolationmode  none
attr source  txPk
attr title  "packets transmitted, vector(packetBytes)"
vector 616  Topo.DC3.eth[0].mac  txPk:vector(packetBytes)  ETV
attr interpolationmode  none
attr source  txPk
attr title  "packets transmitted, vector(packetBytes)"
vector 636  Topo.DC4.eth[0].mac  txPk:vector(packetBytes)  ETV
attr interpolationmode  none
attr source  txPk
attr title  "packets transmitted, vector(packetBytes)"
vector 415  Topo.controller.eth[0].mac  rxPkOk:vector(packetBytes)  ETV
attr interpolationmode  none
attr source  rxPkOk
attr title  "packets received OK, vector(packetBytes)"
vector 416  Topo.controller.eth[0].mac  passedUpPk:vector(packetBytes)  ETV
attr interpolationmode  none
attr source  packetSentToUpper
attr title  "packets passed to higher layer, vector(packetBytes)"
vector 427  Topo.controller.eth[1].mac  rxPkOk:vector(packetBytes)  ETV
attr interpolationmode  none
attr source  rxPkOk
attr title  "packets received OK, vector(packetBytes)"
vector 428  Topo.controller.eth[1].mac  passedUpPk:vector(packetBytes)  ETV
attr interpolationmode  none
attr source  packetSentToUpper
attr title  "packets passed to higher layer, vector(packetBytes)"
vector 439  Topo.controller.eth[2].mac  rxPkOk:vector(packetBytes)  ETV
attr interpolationmode  none
attr source  rxPkOk
attr title  "packets received OK, vector(packetBytes)"
vector 440  Topo.controller.eth[2].mac  passedUpPk:vector(packetBytes)  ETV
attr interpolationmode  none
attr source  packetSentToUpper
attr title  "packets passed to higher layer, vector(packetBytes)"
vector 451  Topo.controller.eth[3].mac  rxPkOk:vector(packetBytes)  ETV
attr interpolationmode  none
attr source  rxPkOk
attr title  "packets received OK, vector(packetBytes)"
vector 452  Topo.controller.eth[3].mac  passedUpPk:vector(packetBytes)  ETV
attr interpolationmode  none
attr source  packetSentToUpper
attr title  "packets passed to higher layer, vector(packetBytes)"
vector 463  Topo.controller.eth[4].mac  rxPkOk:vector(packetBytes)  ETV
attr interpolationmode  none
attr source  rxPkOk
attr title  "packets received OK, vector(packetBytes)"
vector 464  Topo.controller.eth[4].mac  passedUpPk:vector(packetBytes)  ETV
attr interpolationmode  none
attr source  packetSentToUpper
attr title  "packets passed to higher layer, vector(packetBytes)"
vector 475  Topo.controller.eth[5].mac  rxPkOk:vector(packetBytes)  ETV
attr interpolationmode  none
attr source  rxPkOk
attr title  "packets received OK, vector(packetBytes)"
vector 476  Topo.controller.eth[5].mac  passedUpPk:vector(packetBytes)  ETV
attr interpolationmode  none
attr source  packetSentToUpper
attr title  "packets passed to higher layer, vector(packetBytes)"
vector 487  Topo.controller.eth[6].mac  rxPkOk:vector(packetBytes)  ETV
attr interpolationmode  none
attr source  rxPkOk
attr title  "packets received OK, vector(packetBytes)"
vector 488  Topo.controller.eth[6].mac  passedUpPk:vector(packetBytes)  ETV
attr interpolationmode  none
attr source  packetSentToUpper
attr title  "packets passed to higher layer, vector(packetBytes)"
vector 499  Topo.controller.eth[7].mac  rxPkOk:vector(packetBytes)  ETV
attr interpolationmode  none
attr source  rxPkOk
attr title  "packets received OK, vector(packetBytes)"
vector 500  Topo.controller.eth[7].mac  passedUpPk:vector(packetBytes)  ETV
attr interpolationmode  none
attr source  packetSentToUpper
attr title  "packets passed to higher layer, vector(packetBytes)"
vector 48  Topo.s2.etherMAC[0]  rxPkOk:vector(packetBytes)  ETV
attr interpolationmode  none
attr source  rxPkOk
attr title  "packets received OK, vector(packetBytes)"
vector 49  Topo.s2.etherMAC[0]  passedUpPk:vector(packetBytes)  ETV
attr interpolationmode  none
attr source  packetSentToUpper
attr title  "packets passed to higher layer, vector(packetBytes)"
vector 106  Topo.s3.etherMAC[0]  rxPkOk:vector(packetBytes)  ETV
attr interpolationmode  none
attr source  rxPkOk
attr title  "packets received OK, vector(packetBytes)"
vector 107  Topo.s3.etherMAC[0]  passedUpPk:vector(packetBytes)  ETV
attr interpolationmode  none
attr source  packetSentToUpper
attr title  "packets passed to higher layer, vector(packetBytes)"
vector 258  Topo.s6.etherMAC[0]  rxPkOk:vector(packetBytes)  ETV
attr interpolationmode  none
attr source  rxPkOk
attr title  "packets received OK, vector(packetBytes)"
vector 259  Topo.s6.etherMAC[0]  passedUpPk:vector(packetBytes)  ETV
attr interpolationmode  none
attr source  packetSentToUpper
attr title  "packets passed to higher layer, vector(packetBytes)"
vector 269  Topo.s6.etherMAC[1]  rxPkOk:vector(packetBytes)  ETV
attr interpolationmode  none
attr source  rxPkOk
attr title  "packets received OK, vector(packetBytes)"
vector 270  Topo.s6.etherMAC[1]  passedUpPk:vector(packetBytes)  ETV
attr interpolationmode  none
attr source  packetSentToUpper
attr title  "packets passed to higher layer, vector(packetBytes)"
vector 316  Topo.s7.etherMAC[0]  rxPkOk:vector(packetBytes)  ETV
attr interpolationmode  none
attr source  rxPkOk
attr title  "packets received OK, vector(packetBytes)"
vector 317  Topo.s7.etherMAC[0]  passedUpPk:vector(packetBytes)  ETV
attr interpolationmode  none
attr source  packetSentToUpper
attr title  "packets passed to higher layer, vector(packetBytes)"
vector 327  Topo.s7.etherMAC[1]  rxPkOk:vector(packetBytes)  ETV
attr interpolationmode  none
attr source  rxPkOk
attr title  "packets received OK, vector(packetBytes)"
vector 328  Topo.s7.etherMAC[1]  passedUpPk:vector(packetBytes)  ETV
attr interpolationmode  none
attr source  packetSentToUpper
attr title  "packets passed to higher layer, vector(packetBytes)"
vector 424  Topo.controller.eth[0].encap  decapPk:vector(packetBytes)  ETV
attr interpolationmode  none
attr source  decapPk
attr title  "packets decapsulated, vector(packetBytes)"
vector 436  Topo.controller.eth[1].encap  decapPk:vector(packetBytes)  ETV
attr interpolationmode  none
attr source  decapPk
attr title  "packets decapsulated, vector(packetBytes)"
vector 448  Topo.controller.eth[2].encap  decapPk:vector(packetBytes)  ETV
attr interpolationmode  none
attr source  decapPk
attr title  "packets decapsulated, vector(packetBytes)"
vector 460  Topo.controller.eth[3].encap  decapPk:vector(packetBytes)  ETV
attr interpolationmode  none
attr source  decapPk
attr title  "packets decapsulated, vector(packetBytes)"
vector 472  Topo.controller.eth[4].encap  decapPk:vector(packetBytes)  ETV
attr interpolationmode  none
attr source  decapPk
attr title  "packets decapsulated, vector(packetBytes)"
vector 484  Topo.controller.eth[5].encap  decapPk:vector(packetBytes)  ETV
attr interpolationmode  none
attr source  decapPk
attr title  "packets decapsulated, vector(packetBytes)"
vector 496  Topo.controller.eth[6].encap  decapPk:vector(packetBytes)  ETV
attr interpolationmode  none
attr source  decapPk
attr title  "packets decapsulated, vector(packetBytes)"
vector 508  Topo.controller.eth[7].encap  decapPk:vector(packetBytes)  ETV
attr interpolationmode  none
attr source  decapPk
attr title  "packets decapsulated, vector(packetBytes)"
vector 410  Topo.controller.networkLayer.arp  sentReply:vector  ETV
attr title  "ARP replies sent, vector"
vector 423  Topo.controller.eth[0].encap  encapPk:vector(packetBytes)  ETV
attr interpolationmode  none
attr source  encapPk
attr title  "packets encapsulated, vector(packetBytes)"
vector 435  Topo.controller.eth[1].encap  encapPk:vector(packetBytes)  ETV
attr interpolationmode  none
attr source  encapPk
attr title  "packets encapsulated, vector(packetBytes)"
vector 447  Topo.controller.eth[2].encap  encapPk:vector(packetBytes)  ETV
attr interpolationmode  none
attr source  encapPk
attr title  "packets encapsulated, vector(packetBytes)"
vector 459  Topo.controller.eth[3].encap  encapPk:vector(packetBytes)  ETV
attr interpolationmode  none
attr source  encapPk
attr title  "packets encapsulated, vector(packetBytes)"
vector 471  Topo.controller.eth[4].encap  encapPk:vector(packetBytes)  ETV
attr interpolationmode  none
attr source  encapPk
attr title  "packets encapsulated, vector(packetBytes)"
vector 483  Topo.controller.eth[5].encap  encapPk:vector(packetBytes)  ETV
attr interpolationmode  none
attr source  encapPk
attr title  "packets encapsulated, vector(packetBytes)"
vector 495  Topo.controller.eth[6].encap  encapPk:vector(packetBytes)  ETV
attr interpolationmode  none
attr source  encapPk
attr title  "packets encapsulated, vector(packetBytes)"
vector 507  Topo.controller.eth[7].encap  encapPk:vector(packetBytes)  ETV
attr interpolationmode  none
attr source  encapPk
attr title  "packets encapsulated, vector(packetBytes)"
vector 419  Topo.controller.eth[0].mac  rxPkFromHL:vector(packetBytes)  ETV
attr interpolationmode  none
attr source  rxPkFromHL
attr title  "packet bytes from higher layer, vector(packetBytes)"
vector 431  Topo.controller.eth[1].mac  rxPkFromHL:vector(packetBytes)  ETV
attr interpolationmode  none
attr source  rxPkFromHL
attr title  "packet bytes from higher layer, vector(packetBytes)"
vector 443  Topo.controller.eth[2].mac  rxPkFromHL:vector(packetBytes)  ETV
attr interpolationmode  none
attr source  rxPkFromHL
attr title  "packet bytes from higher layer, vector(packetBytes)"
vector 455  Topo.controller.eth[3].mac  rxPkFromHL:vector(packetBytes)  ETV
attr interpolationmode  none
attr source  rxPkFromHL
attr title  "packet bytes from higher layer, vector(packetBytes)"
vector 467  Topo.controller.eth[4].mac  rxPkFromHL:vector(packetBytes)  ETV
attr interpolationmode  none
attr source  rxPkFromHL
attr title  "packet bytes from higher layer, vector(packetBytes)"
vector 479  Topo.controller.eth[5].mac  rxPkFromHL:vector(packetBytes)  ETV
attr interpolationmode  none
attr source  rxPkFromHL
attr title  "packet bytes from higher layer, vector(packetBytes)"
vector 491  Topo.controller.eth[6].mac  rxPkFromHL:vector(packetBytes)  ETV
attr interpolationmode  none
attr source  rxPkFromHL
attr title  "packet bytes from higher layer, vector(packetBytes)"
vector 503  Topo.controller.eth[7].mac  rxPkFromHL:vector(packetBytes)  ETV
attr interpolationmode  none
attr source  rxPkFromHL
attr title  "packet bytes from higher layer, vector(packetBytes)"
vector 414  Topo.controller.eth[0].mac  txPk:vector(packetBytes)  ETV
attr interpolationmode  none
attr source  txPk
attr title  "packets transmitted, vector(packetBytes)"
vector 426  Topo.controller.eth[1].mac  txPk:vector(packetBytes)  ETV
attr interpolationmode  none
attr source  txPk
attr title  "packets transmitted, vector(packetBytes)"
vector 438  Topo.controller.eth[2].mac  txPk:vector(packetBytes)  ETV
attr interpolationmode  none
attr source  txPk
attr title  "packets transmitted, vector(packetBytes)"
vector 450  Topo.controller.eth[3].mac  txPk:vector(packetBytes)  ETV
attr interpolationmode  none
attr source  txPk
attr title  "packets transmitted, vector(packetBytes)"
vector 462  Topo.controller.eth[4].mac  txPk:vector(packetBytes)  ETV
attr interpolationmode  none
attr source  txPk
attr title  "packets transmitted, vector(packetBytes)"
vector 474  Topo.controller.eth[5].mac  txPk:vector(packetBytes)  ETV
attr interpolationmode  none
attr source  txPk
attr title  "packets transmitted, vector(packetBytes)"
vector 486  Topo.controller.eth[6].mac  txPk:vector(packetBytes)  ETV
attr interpolationmode  none
attr source  txPk
attr title  "packets transmitted, vector(packetBytes)"
vector 498  Topo.controller.eth[7].mac  txPk:vector(packetBytes)  ETV
attr interpolationmode  none
attr source  txPk
attr title  "packets transmitted, vector(packetBytes)"
vector 36  Topo.s1.eth[0].mac  rxPkOk:vector(packetBytes)  ETV
attr interpolationmode  none
attr source  rxPkOk
attr title  "packets received OK, vector(packetBytes)"
vector 37  Topo.s1.eth[0].mac  passedUpPk:vector(packetBytes)  ETV
attr interpolationmode  none
attr source  packetSentToUpper
attr title  "packets passed to higher layer, vector(packetBytes)"
vector 94  Topo.s2.eth[0].mac  rxPkOk:vector(packetBytes)  ETV
attr interpolationmode  none
attr source  rxPkOk
attr title  "packets received OK, vector(packetBytes)"
vector 95  Topo.s2.eth[0].mac  passedUpPk:vector(packetBytes)  ETV
attr interpolationmode  none
attr source  packetSentToUpper
attr title  "packets passed to higher layer, vector(packetBytes)"
vector 152  Topo.s3.eth[0].mac  rxPkOk:vector(packetBytes)  ETV
attr interpolationmode  none
attr source  rxPkOk
attr title  "packets received OK, vector(packetBytes)"
vector 153  Topo.s3.eth[0].mac  passedUpPk:vector(packetBytes)  ETV
attr interpolationmode  none
attr source  packetSentToUpper
attr title  "packets passed to higher layer, vector(packetBytes)"
vector 199  Topo.s4.eth[0].mac  rxPkOk:vector(packetBytes)  ETV
attr interpolationmode  none
attr source  rxPkOk
attr title  "packets received OK, vector(packetBytes)"
vector 200  Topo.s4.eth[0].mac  passedUpPk:vector(packetBytes)  ETV
attr interpolationmode  none
attr source  packetSentToUpper
attr title  "packets passed to higher layer, vector(packetBytes)"
vector 246  Topo.s5.eth[0].mac  rxPkOk:vector(packetBytes)  ETV
attr interpolationmode  none
attr source  rxPkOk
attr title  "packets received OK, vector(packetBytes)"
vector 247  Topo.s5.eth[0].mac  passedUpPk:vector(packetBytes)  ETV
attr interpolationmode  none
attr source  packetSentToUpper
attr title  "packets passed to higher layer, vector(packetBytes)"
vector 304  Topo.s6.eth[0].mac  rxPkOk:vector(packetBytes)  ETV
attr interpolationmode  none
attr source  rxPkOk
attr title  "packets received OK, vector(packetBytes)"
vector 305  Topo.s6.eth[0].mac  passedUpPk:vector(packetBytes)  ETV
attr interpolationmode  none
attr source  packetSentToUpper
attr title  "packets passed to higher layer, vector(packetBytes)"
vector 362  Topo.s7.eth[0].mac  rxPkOk:vector(packetBytes)  ETV
attr interpolationmode  none
attr source  rxPkOk
attr title  "packets received OK, vector(packetBytes)"
vector 363  Topo.s7.eth[0].mac  passedUpPk:vector(packetBytes)  ETV
attr interpolationmode  none
attr source  packetSentToUpper
attr title  "packets passed to higher layer, vector(packetBytes)"
vector 398  Topo.s8.eth[0].mac  rxPkOk:vector(packetBytes)  ETV
attr interpolationmode  none
attr source  rxPkOk
attr title  "packets received OK, vector(packetBytes)"
vector 399  Topo.s8.eth[0].mac  passedUpPk:vector(packetBytes)  ETV
attr interpolationmode  none
attr source  packetSentToUpper
attr title  "packets passed to higher layer, vector(packetBytes)"
vector 45  Topo.s1.eth[0].encap  decapPk:vector(packetBytes)  ETV
attr interpolationmode  none
attr source  decapPk
attr title  "packets decapsulated, vector(packetBytes)"
vector 103  Topo.s2.eth[0].encap  decapPk:vector(packetBytes)  ETV
attr interpolationmode  none
attr source  decapPk
attr title  "packets decapsulated, vector(packetBytes)"
vector 161  Topo.s3.eth[0].encap  decapPk:vector(packetBytes)  ETV
attr interpolationmode  none
attr source  decapPk
attr title  "packets decapsulated, vector(packetBytes)"
vector 208  Topo.s4.eth[0].encap  decapPk:vector(packetBytes)  ETV
attr interpolationmode  none
attr source  decapPk
attr title  "packets decapsulated, vector(packetBytes)"
vector 255  Topo.s5.eth[0].encap  decapPk:vector(packetBytes)  ETV
attr interpolationmode  none
attr source  decapPk
attr title  "packets decapsulated, vector(packetBytes)"
vector 313  Topo.s6.eth[0].encap  decapPk:vector(packetBytes)  ETV
attr interpolationmode  none
attr source  decapPk
attr title  "packets decapsulated, vector(packetBytes)"
vector 371  Topo.s7.eth[0].encap  decapPk:vector(packetBytes)  ETV
attr interpolationmode  none
attr source  decapPk
attr title  "packets decapsulated, vector(packetBytes)"
vector 407  Topo.s8.eth[0].encap  decapPk:vector(packetBytes)  ETV
attr interpolationmode  none
attr source  decapPk
attr title  "packets decapsulated, vector(packetBytes)"
vector 653  Topo.controller.tcp  "rcvd seq"  ETV
vector 654  Topo.controller.tcp  "rcvd ack"  ETV
vector 650  Topo.controller.tcp  "advertised window"  ETV
vector 648  Topo.controller.tcp  "send window"  ETV
vector 663  Topo.controller.tcp  tcpRcvQueueBytes  ETV
vector 649  Topo.controller.tcp  "receive window"  ETV
vector 652  Topo.controller.tcp  "sent ack"  ETV
vector 1085  Topo.controller.tcp  "rcvd seq"  ETV
vector 1086  Topo.controller.tcp  "rcvd ack"  ETV
vector 1082  Topo.controller.tcp  "advertised window"  ETV
vector 1080  Topo.controller.tcp  "send window"  ETV
vector 1095  Topo.controller.tcp  tcpRcvQueueBytes  ETV
vector 1081  Topo.controller.tcp  "receive window"  ETV
vector 1084  Topo.controller.tcp  "sent ack"  ETV
vector 1109  Topo.controller.tcp  "rcvd seq"  ETV
vector 1110  Topo.controller.tcp  "rcvd ack"  ETV
vector 1106  Topo.controller.tcp  "advertised window"  ETV
vector 1104  Topo.controller.tcp  "send window"  ETV
vector 1119  Topo.controller.tcp  tcpRcvQueueBytes  ETV
vector 1105  Topo.controller.tcp  "receive window"  ETV
vector 1108  Topo.controller.tcp  "sent ack"  ETV
vector 1133  Topo.controller.tcp  "rcvd seq"  ETV
vector 1134  Topo.controller.tcp  "rcvd ack"  ETV
vector 1130  Topo.controller.tcp  "advertised window"  ETV
vector 1128  Topo.controller.tcp  "send window"  ETV
vector 1143  Topo.controller.tcp  tcpRcvQueueBytes  ETV
vector 1129  Topo.controller.tcp  "receive window"  ETV
vector 1132  Topo.controller.tcp  "sent ack"  ETV
vector 1157  Topo.controller.tcp  "rcvd seq"  ETV
vector 1158  Topo.controller.tcp  "rcvd ack"  ETV
vector 1154  Topo.controller.tcp  "advertised window"  ETV
vector 1152  Topo.controller.tcp  "send window"  ETV
vector 1167  Topo.controller.tcp  tcpRcvQueueBytes  ETV
vector 1153  Topo.controller.tcp  "receive window"  ETV
vector 1156  Topo.controller.tcp  "sent ack"  ETV
vector 1181  Topo.controller.tcp  "rcvd seq"  ETV
vector 1182  Topo.controller.tcp  "rcvd ack"  ETV
vector 1178  Topo.controller.tcp  "advertised window"  ETV
vector 1176  Topo.controller.tcp  "send window"  ETV
vector 1191  Topo.controller.tcp  tcpRcvQueueBytes  ETV
vector 1177  Topo.controller.tcp  "receive window"  ETV
vector 1180  Topo.controller.tcp  "sent ack"  ETV
vector 1205  Topo.controller.tcp  "rcvd seq"  ETV
vector 1206  Topo.controller.tcp  "rcvd ack"  ETV
vector 1202  Topo.controller.tcp  "advertised window"  ETV
vector 1200  Topo.controller.tcp  "send window"  ETV
vector 1215  Topo.controller.tcp  tcpRcvQueueBytes  ETV
vector 1201  Topo.controller.tcp  "receive window"  ETV
vector 1204  Topo.controller.tcp  "sent ack"  ETV
vector 1229  Topo.controller.tcp  "rcvd seq"  ETV
vector 1230  Topo.controller.tcp  "rcvd ack"  ETV
vector 1226  Topo.controller.tcp  "advertised window"  ETV