file 690812 1480354633                                          
version 2
run disable-0-20161128-18:33:28-26971
attr configname disable
attr datetime 20161128-18:33:28
attr experiment disable
attr inifile omnetpp.ini
attr iterationvars ""
attr iterationvars2 $repetition=0
attr measurement ""
attr network Topo
attr processid 26971
attr repetition 0
attr replication #0
attr resultdir results
attr runnumber 0
attr seedset 0

vector 722  Topo.s1.tcp  tcpRcvQueueBytes  ETV
vector 709  Topo.s1.tcp  "advertised window"  ETV
vector 708  Topo.s1.tcp  "receive window"  ETV
vector 711  Topo.s1.tcp  "sent ack"  ETV
vector 746  Topo.s2.tcp  tcpRcvQueueBytes  ETV
vector 733  Topo.s2.tcp  "advertised window"  ETV
vector 732  Topo.s2.tcp  "receive window"  ETV
vector 735  Topo.s2.tcp  "sent ack"  ETV
vector 770  Topo.s3.tcp  tcpRcvQueueBytes  ETV
vector 757  Topo.s3.tcp  "advertised window"  ETV
vector 756  Topo.s3.tcp  "receive window"  ETV
vector 759  Topo.s3.tcp  "sent ack"  ETV
vector 794  Topo.s4.tcp  tcpRcvQueueBytes  ETV
vector 781  Topo.s4.tcp  "advertised window"  ETV
vector 780  Topo.s4.tcp  "receive window"  ETV
vector 783  Topo.s4.tcp  "sent ack"  ETV
vector 818  Topo.s5.tcp  tcpRcvQueueBytes  ETV
vector 805  Topo.s5.tcp  "advertised window"  ETV
vector 804  Topo.s5.tcp  "receive window"  ETV
vector 807  Topo.s5.tcp  "sent ack"  ETV
vector 842  Topo.s6.tcp  tcpRcvQueueBytes  ETV
vector 829  Topo.s6.tcp  "advertised window"  ETV
vector 828  Topo.s6.tcp  "receive window"  ETV
vector 831  Topo.s6.tcp  "sent ack"  ETV
vector 866  Topo.s7.tcp  tcpRcvQueueBytes  ETV
vector 853  Topo.s7.tcp  "advertised window"  ETV
vector 852  Topo.s7.tcp  "receive window"  ETV
vector 855  Topo.s7.tcp  "sent ack"  ETV
vector 890  Topo.s8.tcp  tcpRcvQueueBytes  ETV
vector 877  Topo.s8.tcp  "advertised window"  ETV
vector 876  Topo.s8.tcp  "receive window"  ETV
vector 879  Topo.s8.tcp  "sent ack"  ETV
vector 33  Topo.s1.networkLayer.arp  sentReq:vector  ETV
attr title  "ARP request sent, vector"
vector 91  Topo.s2.networkLayer.arp  sentReq:vector  ETV
attr title  "ARP request sent, vector"
vector 149  Topo.s3.networkLayer.arp  sentReq:vector  ETV
attr title  "ARP request sent, vector"
vector 196  Topo.s4.networkLayer.arp  sentReq:vector  ETV
attr title  "ARP request sent, vector"
vector 243  Topo.s5.networkLayer.arp  sentReq:vector  ETV
attr title  "ARP request sent, vector"
vector 301  Topo.s6.networkLayer.arp  sentReq:vector  ETV
attr title  "ARP request sent, vector"
vector 359  Topo.s7.networkLayer.arp  sentReq:vector  ETV
attr title  "ARP request sent, vector"
vector 395  Topo.s8.networkLayer.arp  sentReq:vector  ETV
attr title  "ARP request sent, vector"
vector 44  Topo.s1.eth[0].encap  encapPk:vector(packetBytes)  ETV
attr interpolationmode  none
attr source  encapPk
attr title  "packets encapsulated, vector(packetBytes)"
vector 102  Topo.s2.eth[0].encap  encapPk:vector(packetBytes)  ETV
attr interpolationmode  none
attr source  encapPk
attr title  "packets encapsulated, vector(packetBytes)"
vector 160  Topo.s3.eth[0].encap  encapPk:vector(packetBytes)  ETV
attr interpolationmode  none
attr source  encapPk
attr title  "packets encapsulated, vector(packetBytes)"
vector 207  Topo.s4.eth[0].encap  encapPk:vector(packetBytes)  ETV
attr interpolationmode  none
attr source  encapPk
attr title  "packets encapsulated, vector(packetBytes)"
vector 254  Topo.s5.eth[0].encap  encapPk:vector(packetBytes)  ETV
attr interpolationmode  none
attr source  encapPk
attr title  "packets encapsulated, vector(packetBytes)"
vector 312  Topo.s6.eth[0].encap  encapPk:vector(packetBytes)  ETV
attr interpolationmode  none
attr source  encapPk
attr title  "packets encapsulated, vector(packetBytes)"
vector 370  Topo.s7.eth[0].encap  encapPk:vector(packetBytes)  ETV
attr interpolationmode  none
attr source  encapPk
attr title  "packets encapsulated, vector(packetBytes)"
vector 406  Topo.s8.eth[0].encap  encapPk:vector(packetBytes)  ETV
attr interpolationmode  none
attr source  encapPk
attr title  "packets encapsulated, vector(packetBytes)"
vector 40  Topo.s1.eth[0].mac  rxPkFromHL:vector(packetBytes)  ETV
attr interpolationmode  none
attr source  rxPkFromHL
attr title  "packet bytes from higher layer, vector(packetBytes)"
vector 98  Topo.s2.eth[0].mac  rxPkFromHL:vector(packetBytes)  ETV
attr interpolationmode  none
attr source  rxPkFromHL
attr title  "packet bytes from higher layer, vector(packetBytes)"
vector 156  Topo.s3.eth[0].mac  rxPkFromHL:vector(packetBytes)  ETV
attr interpolationmode  none
attr source  rxPkFromHL
attr title  "packet bytes from higher layer, vector(packetBytes)"
vector 203  Topo.s4.eth[0].mac  rxPkFromHL:vector(packetBytes)  ETV
attr interpolationmode  none
attr source  rxPkFromHL
attr title  "packet bytes from higher layer, vector(packetBytes)"
vector 250  Topo.s5.eth[0].mac  rxPkFromHL:vector(packetBytes)  ETV
attr interpolationmode  none
attr source  rxPkFromHL
attr title  "packet bytes from higher layer, vector(packetBytes)"
vector 308  Topo.s6.eth[0].mac  rxPkFromHL:vector(packetBytes)  ETV
attr interpolationmode  none
attr source  rxPkFromHL
attr title  "packet bytes from higher layer, vector(packetBytes)"
vector 366  Topo.s7.eth[0].mac  rxPkFromHL:vector(packetBytes)  ETV
attr interpolationmode  none
attr source  rxPkFromHL
attr title  "packet bytes from higher layer, vector(packetBytes)"
vector 402  Topo.s8.eth[0].mac  rxPkFromHL:vector(packetBytes)  ETV
attr interpolationmode  none
attr source  rxPkFromHL
attr title  "packet bytes from higher layer, vector(packetBytes)"
vector 35  Topo.s1.eth[0].mac  txPk:vector(packetBytes)  ETV
attr interpolationmode  none
attr source  txPk
attr title  "packets transmitted, vector(packetBytes)"
vector 93  Topo.s2.eth[0].mac  txPk:vector(packetBytes)  ETV
attr interpolationmode  none
attr source  txPk
attr title  "packets transmitted, vector(packetBytes)"
vector 151  Topo.s3.eth[0].mac  txPk:vector(packetBytes)  ETV
attr interpolationmode  none
attr source  txPk
attr title  "packets transmitted, vector(packetBytes)"
vector 198  Topo.s4.eth[0].mac  txPk:vector(packetBytes)  ETV
attr interpolationmode  none
attr source  txPk
attr title  "packets transmitted, vector(packetBytes)"
vector 245  Topo.s5.eth[0].mac  txPk:vector(packetBytes)  ETV
attr interpolationmode  none
attr source  txPk
attr title  "packets transmitted, vector(packetBytes)"
vector 303  Topo.s6.eth[0].mac  txPk:vector(packetBytes)  ETV
attr interpolationmode  none
attr source  txPk
attr title  "packets transmitted, vector(packetBytes)"
vector 361  Topo.s7.eth[0].mac  txPk:vector(packetBytes)  ETV
attr interpolationmode  none
attr source  txPk
attr title  "packets transmitted, vector(packetBytes)"
vector 397  Topo.s8.eth[0].mac  txPk:vector(packetBytes)  ETV
attr interpolationmode  none
attr source  txPk
attr title  "packets transmitted, vector(packetBytes)"
vector 415  Topo.controller.eth[0].mac  rxPkOk:vector(packetBytes)  ETV
attr interpolationmode  none
attr source  rxPkOk
attr title  "packets received OK, vector(packetBytes)"
vector 416  Topo.controller.eth[0].mac  passedUpPk:vector(packetBytes)  ETV
attr interpolationmode  none
attr source  packetSentToUpper
attr title  "packets passed to higher layer, vector(packetBytes)"
vector 427  Topo.controller.eth[1].mac  rxPkOk:vector(packetBytes)  ETV
attr interpolationmode  none
attr source  rxPkOk
attr title  "packets received OK, vector(packetBytes)"
vector 428  Topo.controller.eth[1].mac  passedUpPk:vector(packetBytes)  ETV
attr interpolationmode  none
attr source  packetSentToUpper
attr title  "packets passed to higher layer, vector(packetBytes)"
vector 439  Topo.controller.eth[2].mac  rxPkOk:vector(packetBytes)  ETV
attr interpolationmode  none
attr source  rxPkOk
attr title  "packets received OK, vector(packetBytes)"
vector 440  Topo.controller.eth[2].mac  passedUpPk:vector(packetBytes)  ETV
attr interpolationmode  none
attr source  packetSentToUpper
attr title  "packets passed to higher layer, vector(packetBytes)"
vector 451  Topo.controller.eth[3].mac  rxPkOk:vector(packetBytes)  ETV
attr interpolationmode  none
attr source  rxPkOk
attr title  "packets received OK, vector(packetBytes)"
vector 452  Topo.controller.eth[3].mac  passedUpPk:vector(packetBytes)  ETV
attr interpolationmode  none
attr source  packetSentToUpper
attr title  "packets passed to higher layer, vector(packetBytes)"
vector 463  Topo.controller.eth[4].mac  rxPkOk:vector(packetBytes)  ETV
attr interpolationmode  none
attr source  rxPkOk
attr title  "packets received OK, vector(packetBytes)"
vector 464  Topo.controller.eth[4].mac  passedUpPk:vector(packetBytes)  ETV
attr interpolationmode  none
attr source  packetSentToUpper
attr title  "packets passed to higher layer, vector(packetBytes)"
vector 475  Topo.controller.eth[5].mac  rxPkOk:vector(packetBytes)  ETV
attr interpolationmode  none
attr source  rxPkOk
attr title  "packets received OK, vector(packetBytes)"
vector 476  Topo.controller.eth[5].mac  passedUpPk:vector(packetBytes)  ETV
attr interpolationmode  none
attr source  packetSentToUpper
attr title  "packets passed to higher layer, vector(packetBytes)"
vector 487  Topo.controller.eth[6].mac  rxPkOk:vector(packetBytes)  ETV
attr interpolationmode  none
attr source  rxPkOk
attr title  "packets received OK, vector(packetBytes)"
vector 488  Topo.controller.eth[6].mac  passedUpPk:vector(packetBytes)  ETV
attr interpolationmode  none
attr source  packetSentToUpper
attr title  "packets passed to higher layer, vector(packetBytes)"
vector 499  Topo.controller.eth[7].mac  rxPkOk:vector(packetBytes)  ETV
attr interpolationmode  none
attr source  rxPkOk
attr title  "packets received OK, vector(packetBytes)"
vector 500  Topo.controller.eth[7].mac  passedUpPk:vector(packetBytes)  ETV
attr interpolationmode  none
attr source  packetSentToUpper
attr title  "packets passed to higher layer, vector(packetBytes)"
vector 424  Topo.controller.eth[0].encap  decapPk:vector(packetBytes)  ETV
attr interpolationmode  none
attr source  decapPk
attr title  "packets decapsulated, vector(packetBytes)"
vector 436  Topo.controller.eth[1].encap  decapPk:vector(packetBytes)  ETV
attr interpolationmode  none
attr source  decapPk
attr title  "packets decapsulated, vector(packetBytes)"
vector 448  Topo.controller.eth[2].encap  decapPk:vector(packetBytes)  ETV
attr interpolationmode  none
attr source  decapPk
attr title  "packets decapsulated, vector(packetBytes)"
vector 460  Topo.controller.eth[3].encap  decapPk:vector(packetBytes)  ETV
attr interpolationmode  none
attr source  decapPk
attr title  "packets decapsulated, vector(packetBytes)"
vector 472  Topo.controller.eth[4].encap  decapPk:vector(packetBytes)  ETV
attr interpolationmode  none
attr source  decapPk
attr title  "packets decapsulated, vector(packetBytes)"
vector 484  Topo.controller.eth[5].encap  decapPk:vector(packetBytes)  ETV
attr interpolationmode  none
attr source  decapPk
attr title  "packets decapsulated, vector(packetBytes)"
vector 496  Topo.controller.eth[6].encap  decapPk:vector(packetBytes)  ETV
attr interpolationmode  none
attr source  decapPk
attr title  "packets decapsulated, vector(packetBytes)"
vector 508  Topo.controller.eth[7].encap  decapPk:vector(packetBytes)  ETV
attr interpolationmode  none
attr source  decapPk
attr title  "packets decapsulated, vector(packetBytes)"
vector 410  Topo.controller.networkLayer.arp  sentReply:vector  ETV
attr title  "ARP replies sent, vector"
vector 423  Topo.controller.eth[0].encap  encapPk:vector(packetBytes)  ETV
attr interpolationmode  none
attr source  encapPk
attr title  "packets encapsulated, vector(packetBytes)"
vector 435  Topo.controller.eth[1].encap  encapPk:vector(packetBytes)  ETV
attr interpolationmode  none
attr source  encapPk
attr title  "packets encapsulated, vector(packetBytes)"
vector 447  Topo.controller.eth[2].encap  encapPk:vector(packetBytes)  ETV
attr interpolationmode  none
attr source  encapPk
attr title  "packets encapsulated, vector(packetBytes)"
vector 459  Topo.controller.eth[3].encap  encapPk:vector(packetBytes)  ETV
attr interpolationmode  none
attr source  encapPk
attr title  "packets encapsulated, vector(packetBytes)"
vector 471  Topo.controller.eth[4].encap  encapPk:vector(packetBytes)  ETV
attr interpolationmode  none
attr source  encapPk
attr title  "packets encapsulated, vector(packetBytes)"
vector 483  Topo.controller.eth[5].encap  encapPk:vector(packetBytes)  ETV
attr interpolationmode  none
attr source  encapPk
attr title  "packets encapsulated, vector(packetBytes)"
vector 495  Topo.controller.eth[6].encap  encapPk:vector(packetBytes)  ETV
attr interpolationmode  none
attr source  encapPk
attr title  "packets encapsulated, vector(packetBytes)"
vector 507  Topo.controller.eth[7].encap  encapPk:vector(packetBytes)  ETV
attr interpolationmode  none
attr source  encapPk
attr title  "packets encapsulated, vector(packetBytes)"
vector 419  Topo.controller.eth[0].mac  rxPkFromHL:vector(packetBytes)  ETV
attr interpolationmode  none
attr source  rxPkFromHL
attr title  "packet bytes from higher layer, vector(packetBytes)"
vector 431  Topo.controller.eth[1].mac  rxPkFromHL:vector(packetBytes)  ETV
attr interpolationmode  none
attr source  rxPkFromHL
attr title  "packet bytes from higher layer, vector(packetBytes)"
vector 443  Topo.controller.eth[2].mac  rxPkFromHL:vector(packetBytes)  ETV
attr interpolationmode  none
attr source  rxPkFromHL
attr title  "packet bytes from higher layer, vector(packetBytes)"
vector 455  Topo.controller.eth[3].mac  rxPkFromHL:vector(packetBytes)  ETV
attr interpolationmode  none
attr source  rxPkFromHL
attr title  "packet bytes from higher layer, vector(packetBytes)"
vector 467  Topo.controller.eth[4].mac  rxPkFromHL:vector(packetBytes)  ETV
attr interpolationmode  none
attr source  rxPkFromHL
attr title  "packet bytes from higher layer, vector(packetBytes)"
vector 479  Topo.controller.eth[5].mac  rxPkFromHL:vector(packetBytes)  ETV
attr interpolationmode  none
attr source  rxPkFromHL
attr title  "packet bytes from higher layer, vector(packetBytes)"
vector 491  Topo.controller.eth[6].mac  rxPkFromHL:vector(packetBytes)  ETV
attr interpolationmode  none
attr source  rxPkFromHL
attr title  "packet bytes from higher layer, vector(packetBytes)"
vector 503  Topo.controller.eth[7].mac  rxPkFromHL:vector(packetBytes)  ETV
attr interpolationmode  none
attr source  rxPkFromHL
attr title  "packet bytes from higher layer, vector(packetBytes)"
vector 414  Topo.controller.eth[0].mac  txPk:vector(packetBytes)  ETV
attr interpolationmode  none
attr source  txPk
attr title  "packets transmitted, vector(packetBytes)"
vector 426  Topo.controller.eth[1].mac  txPk:vector(packetBytes)  ETV
attr interpolationmode  none
attr source  txPk
attr title  "packets transmitted, vector(packetBytes)"
vector 438  Topo.controller.eth[2].mac  txPk:vector(packetBytes)  ETV
attr interpolationmode  none
attr source  txPk
attr title  "packets transmitted, vector(packetBytes)"
vector 450  Topo.controller.eth[3].mac  txPk:vector(packetBytes)  ETV
attr interpolationmode  none
attr source  txPk
attr title  "packets transmitted, vector(packetBytes)"
vector 462  Topo.controller.eth[4].mac  txPk:vector(packetBytes)  ETV
attr interpolationmode  none
attr source  txPk
attr title  "packets transmitted, vector(packetBytes)"
vector 474  Topo.controller.eth[5].mac  txPk:vector(packetBytes)  ETV
attr interpolationmode  none
attr source  txPk
attr title  "packets transmitted, vector(packetBytes)"
vector 486  Topo.controller.eth[6].mac  txPk:vector(packetBytes)  ETV
attr interpolationmode  none
attr source  txPk
attr title  "packets transmitted, vector(packetBytes)"
vector 498  Topo.controller.eth[7].mac  txPk:vector(packetBytes)  ETV
attr interpolationmode  none
attr source  txPk
attr title  "packets transmitted, vector(packetBytes)"
vector 36  Topo.s1.eth[0].mac  rxPkOk:vector(packetBytes)  ETV
attr interpolationmode  none
attr source  rxPkOk
attr title  "packets received OK, vector(packetBytes)"
vector 37  Topo.s1.eth[0].mac  passedUpPk:vector(packetBytes)  ETV
attr interpolationmode  none
attr source  packetSentToUpper
attr title  "packets passed to higher layer, vector(packetBytes)"
vector 94  Topo.s2.eth[0].mac  rxPkOk:vector(packetBytes)  ETV
attr interpolationmode  none
attr source  rxPkOk
attr title  "packets received OK, vector(packetBytes)"
vector 95  Topo.s2.eth[0].mac  passedUpPk:vector(packetBytes)  ETV
attr interpolationmode  none
attr source  packetSentToUpper
attr title  "packets passed to higher layer, vector(packetBytes)"
vector 152  Topo.s3.eth[0].mac  rxPkOk:vector(packetBytes)  ETV
attr interpolationmode  none
attr source  rxPkOk
attr title  "packets received OK, vector(packetBytes)"
vector 153  Topo.s3.eth[0].mac  passedUpPk:vector(packetBytes)  ETV
attr interpolationmode  none
attr source  packetSentToUpper
attr title  "packets passed to higher layer, vector(packetBytes)"
vector 199  Topo.s4.eth[0].mac  rxPkOk:vector(packetBytes)  ETV
attr interpolationmode  none
attr source  rxPkOk
attr title  "packets received OK, vector(packetBytes)"
vector 200  Topo.s4.eth[0].mac  passedUpPk:vector(packetBytes)  ETV
attr interpolationmode  none
attr source  packetSentToUpper
attr title  "packets passed to higher layer, vector(packetBytes)"
vector 246  Topo.s5.eth[0].mac  rxPkOk:vector(packetBytes)  ETV
attr interpolationmode  none
attr source  rxPkOk
attr title  "packets received OK, vector(packetBytes)"
vector 247  Topo.s5.eth[0].mac  passedUpPk:vector(packetBytes)  ETV
attr interpolationmode  none
attr source  packetSentToUpper
attr title  "packets passed to higher layer, vector(packetBytes)"
vector 304  Topo.s6.eth[0].mac  rxPkOk:vector(packetBytes)  ETV
attr interpolationmode  none
attr source  rxPkOk
attr title  "packets received OK, vector(packetBytes)"
vector 305  Topo.s6.eth[0].mac  passedUpPk:vector(packetBytes)  ETV
attr interpolationmode  none
attr source  packetSentToUpper
attr title  "packets passed to higher layer, vector(packetBytes)"
vector 362  Topo.s7.eth[0].mac  rxPkOk:vector(packetBytes)  ETV
attr interpolationmode  none
attr source  rxPkOk
attr title  "packets received OK, vector(packetBytes)"
vector 363  Topo.s7.eth[0].mac  passedUpPk:vector(packetBytes)  ETV
attr interpolationmode  none
attr source  packetSentToUpper
attr title  "packets passed to higher layer, vector(packetBytes)"
vector 398  Topo.s8.eth[0].mac  rxPkOk:vector(packetBytes)  ETV
attr interpolationmode  none
attr source  rxPkOk
attr title  "packets received OK, vector(packetBytes)"
vector 399  Topo.s8.eth[0].mac  passedUpPk:vector(packetBytes)  ETV
attr interpolationmode  none
attr source  packetSentToUpper
attr title  "packets passed to higher layer, vector(packetBytes)"
vector 45  Topo.s1.eth[0].encap  decapPk:vector(packetBytes)  ETV
attr interpolationmode  none
attr source  decapPk
attr title  "packets decapsulated, vector(packetBytes)"
vector 103  Topo.s2.eth[0].encap  decapPk:vector(packetBytes)  ETV
attr interpolationmode  none
attr source  decapPk
attr title  "packets decapsulated, vector(packetBytes)"
vector 161  Topo.s3.eth[0].encap  decapPk:vector(packetBytes)  ETV
attr interpolationmode  none
attr source  decapPk
attr title  "packets decapsulated, vector(packetBytes)"
vector 208  Topo.s4.eth[0].encap  decapPk:vector(packetBytes)  ETV
attr interpolationmode  none
attr source  decapPk
attr title  "packets decapsulated, vector(packetBytes)"
vector 255  Topo.s5.eth[0].encap  decapPk:vector(packetBytes)  ETV
attr interpolationmode  none
attr source  decapPk
attr title  "packets decapsulated, vector(packetBytes)"
vector 313  Topo.s6.eth[0].encap  decapPk:vector(packetBytes)  ETV
attr interpolationmode  none
attr source  decapPk
attr title  "packets decapsulated, vector(packetBytes)"
vector 371  Topo.s7.eth[0].encap  decapPk:vector(packetBytes)  ETV
attr interpolationmode  none
attr source  decapPk
attr title  "packets decapsulated, vector(packetBytes)"
vector 407  Topo.s8.eth[0].encap  decapPk:vector(packetBytes)  ETV
attr interpolationmode  none
attr source  decapPk
attr title  "packets decapsulated, vector(packetBytes)"
vector 688  Topo.controller.tcp  "rcvd seq"  ETV
vector 689  Topo.controller.tcp  "rcvd ack"  ETV
vector 685  Topo.controller.tcp  "advertised window"  ETV
vector 683  Topo.controller.tcp  "send window"  ETV
vector 698  Topo.controller.tcp  tcpRcvQueueBytes  ETV
vector 684  Topo.controller.tcp  "receive window"  ETV
vector 687  Topo.controller.tcp  "sent ack"  ETV
vector 904  Topo.controller.tcp  "rcvd seq"  ETV
vector 905  Topo.controller.tcp  "rcvd ack"  ETV
vector 901  Topo.controller.tcp  "advertised window"  ETV
vector 899  Topo.controller.tcp  "send window"  ETV
vector 914  Topo.controller.tcp  tcpRcvQueueBytes  ETV
vector 900  Topo.controller.tcp  "receive window"  ETV
vector 903  Topo.controller.tcp  "sent ack"  ETV
vector 928  Topo.controller.tcp  "rcvd seq"  ETV
vector 929  Topo.controller.tcp  "rcvd ack"  ETV
vector 925  Topo.controller.tcp  "advertised window"  ETV
vector 923  Topo.controller.tcp  "send window"  ETV
vector 938  Topo.controller.tcp  tcpRcvQueueBytes  ETV
vector 924  Topo.controller.tcp  "receive window"  ETV
vector 927  Topo.controller.tcp  "sent ack"  ETV
vector 952  Topo.controller.tcp  "rcvd seq"  ETV
vector 953  Topo.controller.tcp  "rcvd ack"  ETV
vector 949  Topo.controller.tcp  "advertised window"  ETV
vector 947  Topo.controller.tcp  "send window"  ETV
vector 962  Topo.controller.tcp  tcpRcvQueueBytes  ETV
vector 948  Topo.controller.tcp  "receive window"  ETV
vector 951  Topo.controller.tcp  "sent ack"  ETV
vector 976  Topo.controller.tcp  "rcvd seq"  ETV
vector 977  Topo.controller.tcp  "rcvd ack"  ETV
vector 973  Topo.controller.tcp  "advertised window"  ETV
vector 971  Topo.controller.tcp  "send window"  ETV
vector 986  Topo.controller.tcp  tcpRcvQueueBytes  ETV
vector 972  Topo.controller.tcp  "receive window"  ETV
vector 975  Topo.controller.tcp  "sent ack"  ETV
vector 1000  Topo.controller.tcp  "rcvd seq"  ETV
vector 1001  Topo.controller.tcp  "rcvd ack"  ETV
vector 997  Topo.controller.tcp  "advertised window"  ETV
vector 995  Topo.controller.tcp  "send window"  ETV
vector 1010  Topo.controller.tcp  tcpRcvQueueBytes  ETV
vector 996  Topo.controller.tcp  "receive window"  ETV
vector 999  Topo.controller.tcp  "sent ack"  ETV
vector 1024  Topo.controller.tcp  "rcvd seq"  ETV
vector 1025  Topo.controller.tcp  "rcvd ack"  ETV
vector 1021  Topo.controller.tcp  "advertised window"  ETV
vector 1019  Topo.controller.tcp  "send window"  ETV
vector 1034  Topo.controller.tcp  tcpRcvQueueBytes  ETV
vector 1020  Topo.controller.tcp  "receive window"  ETV
vector 1023  Topo.controller.tcp  "sent ack"  ETV
vector 1048  Topo.controller.tcp  "rcvd seq"  ETV
vector 1049  Topo.controller.tcp  "rcvd ack"  ETV
vector 1045  Topo.controller.tcp  "advertised window"  ETV
vector 1043  Topo.controller.tcp  "send window"  ETV
vector 1058  Topo.controller.tcp  tcpRcvQueueBytes  ETV
vector 1044  Topo.controller.tcp  "receive window"  ETV
vector 1047  Topo.controller.tcp  "sent ack"  ETV
vector 712  Topo.s1.tcp  "rcvd seq"  ETV
vector 713  Topo.s1.tcp  "rcvd ack"  ETV
vector 707  Topo.s1.tcp  "send window"  ETV
vector 736  Topo.s2.tcp  "rcvd seq"  ETV
vector 737  Topo.s2.tcp  "rcvd ack"  ETV
vector 731  Topo.s2.tcp  "send window"  ETV
vector 760  Topo.s3.tcp  "rcvd seq"  ETV
vector 761  Topo.s3.tcp  "rcvd ack"  ETV
vector 755  Topo.s3.tcp  "send window"  ETV
vector 784  Topo.s4.tcp  "rcvd seq"  ETV
vector 785  Topo.s4.tcp  "rcvd ack"  ETV
vector 779  Topo.s4.tcp  "send window"  ETV
vector 808  Topo.s5.tcp  "rcvd seq"  ETV
vector 809  Topo.s5.tcp  "rcvd ack"  ETV
vector 803  Topo.s5.tcp  "send window"  ETV
vector 832  Topo.s6.tcp  "rcvd seq"  ETV
vector 833  Topo.s6.tcp  "rcvd ack"  ETV
vector 827  Topo.s6.tcp  "send window"  ETV
vector 856  Topo.s7.tcp  "rcvd seq"  ETV
vector 857  Topo.s7.tcp  "rcvd ack"  ETV
vector 851  Topo.s7.tcp  "send window"  ETV
vector 880  Topo.s8.tcp  "rcvd seq"  ETV
vector 881  Topo.s8.tcp  "rcvd ack"  ETV
vector 875  Topo.s8.tcp  "send window"  ETV
vector 690  Topo.controller.tcp  "unacked bytes"  ETV
vector 906  Topo.controller.tcp  "unacked bytes"  ETV
vector 930  Topo.controller.tcp  "unacked bytes"  ETV
vector 954  Topo.controller.tcp  "unacked bytes"  ETV
vector 978  Topo.controller.tcp  "unacked bytes"  ETV
vector 1002  Topo.controller.tcp  "unacked bytes"  ETV
vector 1026  Topo.controller.tcp  "unacked bytes"  ETV
vector 1050  Topo.controller.tcp  "unacked bytes"  ETV
vector 686  Topo.controller.tcp  "sent seq"  ETV
vector 902  Topo.controller.tcp  "sent seq"  ETV
vector 926  Topo.controller.tcp  "sent seq"  ETV
vector 950  Topo.controller.tcp  "sent seq"  ETV
vector 974  Topo.controller.tcp  "sent seq"  ETV
vector 998  Topo.controller.tcp  "sent seq"  ETV
vector 1022  Topo.controller.tcp  "sent seq"  ETV
vector 1046  Topo.controller.tcp  "sent seq"  ETV
vector 715  Topo.s1.tcp  "rcvd dupAcks"  ETV
vector 739  Topo.s2.tcp  "rcvd dupAcks"  ETV
vector 763  Topo.s3.tcp  "rcvd dupAcks"  ETV
vector 787  Topo.s4.tcp  "rcvd dupAcks"  ETV
vector 811  Topo.s5.tcp  "rcvd dupAcks"  ETV
vector 835  Topo.s6.tcp  "rcvd dupAcks"  ETV
vector 859  Topo.s7.tcp  "rcvd dupAcks"  ETV
vector 883  Topo.s8.tcp  "rcvd dupAcks"  ETV
vector 710  Topo.s1.tcp  "sent seq"  ETV
vector 714  Topo.s1.tcp  "unacked bytes"  ETV
vector 734  Topo.s2.tcp  "sent seq"  ETV
vector 738  Topo.s2.tcp  "unacked bytes"  ETV
vector 758  Topo.s3.tcp  "sent seq"  ETV
vector 762  Topo.s3.tcp  "unacked bytes"  ETV
vector 782  Topo.s4.tcp  "sent seq"  ETV
vector 786  Topo.s4.tcp  "unacked bytes"  ETV
vector 806  Topo.s5.tcp  "sent seq"  ETV
vector 810  Topo.s5.tcp  "unacked bytes"  ETV
vector 830  Topo.s6.tcp  "sent seq"  ETV
vector 834  Topo.s6.tcp  "unacked bytes"  ETV
vector 854  Topo.s7.tcp  "sent seq"  ETV
vector 858  Topo.s7.tcp  "unacked bytes"  ETV
vector 878  Topo.s8.tcp  "sent seq"  ETV
vector 882  Topo.s8.tcp  "unacked bytes"  ETV
vector 702  Topo.controller.tcp  "measured RTT"  ETV
vector 703  Topo.controller.tcp  "smoothed RTT"  ETV
vector 704  Topo.controller.tcp  RTTVAR  ETV
vector 705  Topo.controller.tcp  RTO  ETV
vector 700  Topo.controller.tcp  cwnd  ETV
vector 691  Topo.controller.tcp  "rcvd dupAcks"  ETV
vector 918  Topo.controller.tcp  "measured RTT"  ETV
vector 919  Topo.controller.tcp  "smoothed RTT"  ETV
vector 920  Topo.controller.tcp  RTTVAR  ETV
vector 921  Topo.controller.tcp  RTO  ETV
vector 916  Topo.controller.tcp  cwnd  ETV
vector 907  Topo.controller.tcp  "rcvd dupAcks"  ETV
vector 942  Topo.controller.tcp  "measured RTT"  ETV
vector 943  Topo.controller.tcp  "smoothed RTT"  ETV
vector 944  Topo.controller.tcp  RTTVAR  ETV
vector 945  Topo.controller.tcp  RTO  ETV
vector 940  Topo.controller.tcp  cwnd  ETV
vector 931  Topo.controller.tcp  "rcvd dupAcks"  ETV
vector 966  Topo.controller.tcp  "measured RTT"  ETV
vector 967  Topo.controller.tcp  "smoothed RTT"  ETV
vector 968  Topo.controller.tcp  RTTVAR  ETV
vector 969  Topo.controller.tcp  RTO  ETV
vector 964  Topo.controller.tcp  cwnd  ETV
vector 955  Topo.controller.tcp  "rcvd dupAcks"  ETV
vector 990  Topo.controller.tcp  "measured RTT"  ETV
vector 991  Topo.controller.tcp  "smoothed RTT"  ETV
vector 992  Topo.controller.tcp  RTTVAR  ETV
vector 993  Topo.controller.tcp  RTO  ETV
vector 988  Topo.controller.tcp  cwnd  ETV
vector 979  Topo.controller.tcp  "rcvd dupAcks"  ETV
vector 1014  Topo.controller.tcp  "measured RTT"  ETV
vector 1015  Topo.controller.tcp  "smoothed RTT"  ETV
vector 1016  Topo.controller.tcp  RTTVAR  ETV
vector 1017  Topo.controller.tcp  RTO  ETV
vector 1012  Topo.controller.tcp  cwnd  ETV
vector 1003  Topo.controller.tcp  "rcvd dupAcks"  ETV
vector 1038  Topo.controller.tcp  "measured RTT"  ETV
vector 1039  Topo.controller.tcp  "smoothed RTT"  ETV
vector 1040  Topo.controller.tcp  RTTVAR  ETV
vector 1041  Topo.controller.tcp  RTO  ETV
vector 1036  Topo.controller.tcp  cwnd  ETV
vector 1027  Topo.controller.tcp  "rcvd dupAcks"  ETV
vector 1062  Topo.controller.tcp  "measured RTT"  ETV
vector 1063  Topo.controller.tcp  "smoothed RTT"  ETV
vector 1064  Topo.controller.tcp  RTTVAR  ETV
vector 1065  Topo.controller.tcp  RTO  ETV
vector 1060  Topo.controller.tcp  cwnd  ETV
vector 1051  Topo.controller.tcp  "rcvd dupAcks"  ETV
vector 726  Topo.s1.tcp  "measured RTT"  ETV
vector 727  Topo.s1.tcp  "smoothed RTT"  ETV
vector 728  Topo.s1.tcp  RTTVAR  ETV
vector 729  Topo.s1.tcp  RTO  ETV
vector 724  Topo.s1.tcp  cwnd  ETV
vector 750  Topo.s2.tcp  "measured RTT"  ETV
vector 751  Topo.s2.tcp  "smoothed RTT"  ETV
vector 752  Topo.s2.tcp  RTTVAR  ETV
vector 753  Topo.s2.tcp  RTO  ETV
vector 748  Topo.s2.tcp  cwnd  ETV
vector 774  Topo.s3.tcp  "measured RTT"  ETV
vector 775  Topo.s3.tcp  "smoothed RTT"  ETV
vector 776  Topo.s3.tcp  RTTVAR  ETV
vector 777  Topo.s3.tcp  RTO  ETV
vector 772  Topo.s3.tcp  cwnd  ETV
vector 798  Topo.s4.tcp  "measured RTT"  ETV
vector 799  Topo.s4.tcp  "smoothed RTT"  ETV
vector 800  Topo.s4.tcp  RTTVAR  ETV
vector 801  Topo.s4.tcp  RTO  ETV
vector 796  Topo.s4.tcp  cwnd  ETV
vector 822  Topo.s5.tcp  "measured RTT"  ETV
vector 823  Topo.s5.tcp  "smoothed RTT"  ETV
vector 824  Topo.s5.tcp  RTTVAR  ETV
vector 825  Topo.s5.tcp  RTO  ETV
vector 820  Topo.s5.tcp  cwnd  ETV
vector 846  Topo.s6.tcp  "measured RTT"  ETV
vector 847  Topo.s6.tcp  "smoothed RTT"  ETV
vector 848  Topo.s6.tcp  RTTVAR  ETV
vector 849  Topo.s6.tcp  RTO  ETV
vector 844  Topo.s6.tcp  cwnd  ETV
vector 870  Topo.s7.tcp  "measured RTT"  ETV
vector 871  Topo.s7.tcp  "smoothed RTT"  ETV
vector 872  Topo.s7.tcp  RTTVAR  ETV
vector 873  Topo.s7.tcp  RTO  ETV
vector 868  Topo.s7.tcp  cwnd  ETV
vector 894  Topo.s8.tcp  "measured RTT"  ETV
vector 895  Topo.s8.tcp  "smoothed RTT"  ETV
vector 896  Topo.s8.tcp  RTTVAR  ETV
vector 897  Topo.s8.tcp  RTO  ETV
vector 892  Topo.s8.tcp  cwnd  ETV
vector 580  Topo.DC1.udpApp[0]  sentPk:vector(packetBytes)  ETV
attr interpolationmode  none
attr source  sentPk