version 2
run General-0-20170426-11:57:32-29438
attr configname General
attr datetime 20170426-11:57:32
attr experiment General
attr inifile omnetpp.ini
attr iterationvars ""
attr iterationvars2 $repetition=0
attr measurement ""
attr network Scenario
attr processid 29438
attr repetition 0
attr replication #0
attr resultdir results
attr runnumber 0
attr seedset 0

vector 1  Scenario.client.udpApp[0]  sentPk:vector(packetBytes)  ETV
attr interpolationmode  none
attr source  sentPk
attr title  "packets sent, vector(packetBytes)"
vector 3  Scenario.client.udp  sentPk:vector(packetBytes)  ETV
attr interpolationmode  none
attr source  sentPk
attr title  "packets sent, vector(packetBytes)"
vector 4  Scenario.client.udp  sentPk:vector(count)  ETV
attr interpolationmode  none
attr source  sentPk
attr title  "packets sent, vector(count)"
vector 12  Scenario.client.networkLayer.arp  sentReq:vector  ETV
attr title  "ARP request sent, vector"
vector 26  Scenario.client.eth[0].encap  encapPk:vector(packetBytes)  ETV
attr interpolationmode  none
attr source  encapPk
attr title  "packets encapsulated, vector(packetBytes)"
vector 22  Scenario.client.eth[0].mac  rxPkFromHL:vector(packetBytes)  ETV
attr interpolationmode  none
attr source  rxPkFromHL
attr title  "packet bytes from higher layer, vector(packetBytes)"
vector 17  Scenario.client.eth[0].mac  txPk:vector(packetBytes)  ETV
attr interpolationmode  none
attr source  txPk
attr title  "packets transmitted, vector(packetBytes)"
vector 59  Scenario.switch.eth[0].mac  rxPkOk:vector(packetBytes)  ETV
attr interpolationmode  none
attr source  rxPkOk
attr title  "packets received OK, vector(packetBytes)"
vector 60  Scenario.switch.eth[0].mac  passedUpPk:vector(packetBytes)  ETV
attr interpolationmode  none
attr source  packetSentToUpper
attr title  "packets passed to higher layer, vector(packetBytes)"
vector 74  Scenario.switch.eth[1].mac  rxPkFromHL:vector(packetBytes)  ETV
attr interpolationmode  none
attr source  rxPkFromHL
attr title  "packet bytes from higher layer, vector(packetBytes)"
vector 69  Scenario.switch.eth[1].mac  txPk:vector(packetBytes)  ETV
attr interpolationmode  none
attr source  txPk
attr title  "packets transmitted, vector(packetBytes)"
vector 47  Scenario.server.eth[0].mac  rxPkOk:vector(packetBytes)  ETV
attr interpolationmode  none
attr source  rxPkOk
attr title  "packets received OK, vector(packetBytes)"
vector 48  Scenario.server.eth[0].mac  passedUpPk:vector(packetBytes)  ETV
attr interpolationmode  none
attr source  packetSentToUpper
attr title  "packets passed to higher layer, vector(packetBytes)"
vector 56  Scenario.server.eth[0].encap  decapPk:vector(packetBytes)  ETV
attr interpolationmode  none
attr source  decapPk
attr title  "packets decapsulated, vector(packetBytes)"
vector 42  Scenario.server.networkLayer.arp  sentReply:vector  ETV
attr title  "ARP replies sent, vector"
vector 55  Scenario.server.eth[0].encap  encapPk:vector(packetBytes)  ETV
attr interpolationmode  none
attr source  encapPk
attr title  "packets encapsulated, vector(packetBytes)"
vector 51  Scenario.server.eth[0].mac  rxPkFromHL:vector(packetBytes)  ETV
attr interpolationmode  none
attr source  rxPkFromHL
attr title  "packet bytes from higher layer, vector(packetBytes)"
vector 46  Scenario.server.eth[0].mac  txPk:vector(packetBytes)  ETV
attr interpolationmode  none
attr source  txPk
attr title  "packets transmitted, vector(packetBytes)"
vector 70  Scenario.switch.eth[1].mac  rxPkOk:vector(packetBytes)  ETV
attr interpolationmode  none
attr source  rxPkOk
attr title  "packets received OK, vector(packetBytes)"
vector 71  Scenario.switch.eth[1].mac  passedUpPk:vector(packetBytes)  ETV
attr interpolationmode  none
attr source  packetSentToUpper
attr title  "packets passed to higher layer, vector(packetBytes)"
vector 63  Scenario.switch.eth[0].mac  rxPkFromHL:vector(packetBytes)  ETV
attr interpolationmode  none
attr source  rxPkFromHL
attr title  "packet bytes from higher layer, vector(packetBytes)"
vector 58  Scenario.switch.eth[0].mac  txPk:vector(packetBytes)  ETV
attr interpolationmode  none
attr source  txPk
attr title  "packets transmitted, vector(packetBytes)"
vector 18  Scenario.client.eth[0].mac  rxPkOk:vector(packetBytes)  ETV
attr interpolationmode  none
attr source  rxPkOk
attr title  "packets received OK, vector(packetBytes)"
vector 19  Scenario.client.eth[0].mac  passedUpPk:vector(packetBytes)  ETV
attr interpolationmode  none
attr source  packetSentToUpper
attr title  "packets passed to higher layer, vector(packetBytes)"
vector 27  Scenario.client.eth[0].encap  decapPk:vector(packetBytes)  ETV
attr interpolationmode  none
attr source  decapPk
attr title  "packets decapsulated, vector(packetBytes)"
vector 34  Scenario.server.udp  rcvdPk:vector(packetBytes)  ETV
attr interpolationmode  none
attr source  rcvdPk
attr title  "packets received, vector(packetBytes)"
vector 39  Scenario.server.udp  rcvdPkLifetime:vector  ETV
attr interpolationmode  none
attr source  messageAge(rcvdPk)
attr title  "received packet lifetime, vector"
attr unit  s
vector 38  Scenario.server.udp  delay:vector  ETV
attr interpolationmode  none
attr source  delay
attr title  "delay, vector"
vector 35  Scenario.server.udp  passedUpPk:vector(count)  ETV
attr interpolationmode  none
attr title  "packets passed up, vector(count)"
vector 29  Scenario.server.udpApp[0]  rcvdPk:vector(packetBytes)  ETV
attr interpolationmode  none
attr source  rcvdPk
attr title  "packets received, vector(packetBytes)"
vector 30  Scenario.server.udpApp[0]  rcvdPk:vector(count)  ETV
attr interpolationmode  none
attr source  rcvdPk
attr title  "packets received, vector(count)"
vector 31  Scenario.server.udpApp[0]  rcvdAppPkt:vector  ETV
attr interpolationmode  none
attr source  rcvdAppPkt
attr title  "packets received during sec, vector"
1	13	0.2	1250
1	76	0.4	1250
1	101	0.6	1250
1	126	0.8	1250
1	151	1	1250
1	176	1.2	1250
1	201	1.4	1250
1	226	1.6	1250
1	251	1.8	1250
1	276	2	1250
1	301	2.2	1250
1	326	2.4	1250
1	351	2.6	1250
1	376	2.8	1250
1	401	3	1250
1	426	3.2	1250
1	451	3.4	1250
1	476	3.6	1250
1	501	3.8	1250
1	526	4	1250
1	551	4.2	1250
1	576	4.4	1250
1	601	4.6	1250
1	626	4.8	1250
1	651	5	1250
1	676	5.2	1250
1	701	5.4	1250
1	726	5.6	1250
1	751	5.8	1250
1	776	6	1250
1	801	6.2	1250
1	826	6.4	1250
1	851	6.6	1250
1	876	6.8	1250
1	901	7	1250
1	926	7.2	1250
1	951	7.4	1250
1	976	7.6	1250
1	1001	7.8	1250
1	1026	8	1250
1	1051	8.2	1250
1	1076	8.4	1250
1	1101	8.6	1250
1	1126	8.8	1250
1	1151	9	1250
1	1176	9.2	1250
1	1201	9.4	1250
1	1226	9.6	1250
1	1251	9.8	1250
1	1276	10	1250
1	1301	10.2	1250
1	1326	10.4	1250
1	1351	10.6	1250
1	1376	10.8	1250
1	1401	11	1250
1	1426	11.2	1250
1	1451	11.4	1250
1	1476	11.6	1250
1	1501	11.8	1250
1	1526	12	1250
1	1551	12.2	1250
1	1576	12.4	1250
1	1601	12.6	1250
1	1626	12.8	1250
1	1651	13	1250
1	1676	13.2	1250
1	1701	13.4	1250
1	1726	13.6	1250
1	1751	13.8	1250
1	1776	14	1250
1	1801	14.2	1250
1	1826	14.4	1250
1	1851	14.6	1250
1	1876	14.8	1250
1	1901	15	1250
1	1926	15.2	1250
1	1951	15.4	1250
1	1976	15.6	1250
1	2001	15.8	1250
1	2026	16	1250
1	2051	16.2	1250
1	2076	16.4	1250
1	2101	16.6	1250
1	2126	16.8	1250
1	2151	17	1250
1	2176	17.2	1250
1	2201	17.4	1250
1	2226	17.6	1250
1	2251	17.8	1250
1	2276	18	1250
1	2301	18.2	1250
1	2326	18.4	1250
1	2351	18.6	1250
1	2376	18.8	1250
1	2401	19	1250
1	2426	19.2	1250
1	2451	19.4	1250
1	2476	19.6	1250
1	2501	19.8	1250
1	2526	20	1250
1	2551	20.2	1250
1	2576	20.4	1250
1	2601	20.6	1250
1	2626	20.8	1250
1	2651	21	1250
1	2676	21.2	1250
1	2701	21.4	1250
1	2726	21.6	1250
1	2751	21.8	1250
1	2776	22	1250
1	2801	22.2	1250
1	2826	22.4	1250
1	2851	22.6	1250
1	2876	22.8	1250
1	2901	23	1250
1	2926	23.2	1250
1	2951	23.4	1250
1	2976	23.6	1250
1	3001	23.8	1250
1	3026	24	1250
1	3051	24.2	1250
1	3076	24.4	1250
1	3101	24.6	1250
1	3126	24.8	1250
1	3151	25	1250
1	3176	25.2	1250
1	3201	25.4	1250
1	3226	25.6	1250
1	3251	25.8	1250
1	3276	26	1250
1	3301	26.2	1250
1	3326	26.4	1250
1	3351	26.6	1250
1	3376	26.8	1250
1	3401	27	1250
1	3426	27.2	1250
1	3451	27.4	1250
1	3476	27.6	1250
1	3501	27.8	1250
1	3526	28	1250
1	3551	28.2	1250
1	3576	28.4	1250
1	3601	28.6	1250
1	3626	28.8	1250
1	3651	29	1250
1	3676	29.2	1250
1	3701	29.4	1250
1	3726	29.6	1250
1	3751	29.8	1250
1	3776	30	1250
1	3801	30.2	1250
1	3826	30.4	1250
1	3851	30.6	1250
1	3876	30.8	1250
1	3901	31	1250
1	3926	31.2	1250
1	3951	31.4	1250
1	3976	31.6	1250
1	4001	31.8	1250
1	4026	32	1250
1	4051	32.2	1250
1	4076	32.4	1250
1	4101	32.6	1250
1	4126	32.8	1250
1	4151	33	1250
1	4176	33.2	1250
1	4201	33.4	1250
1	4226	33.6	1250
1	4251	33.8	1250
1	4276	34	1250
1	4301	34.2	1250
1	4326	34.4	1250
1	4351	34.6	1250
1	4376	34.8	1250
1	4401	35	1250
1	4426	35.2	1250
1	4451	35.4	1250
1	4476	35.6	1250
1	4501	35.8	1250
1	4526	36	1250
1	4551	36.2	1250
1	4576	36.4	1250
1	4601	36.6	1250
1	4626	36.8	1250
1	4651	37	1250
1	4676	37.2	1250
1	4701	37.4	1250
1	4726	37.6	1250
1	4751	37.8	1250
1	4776	38	1250
1	4801	38.2	1250
1	4826	38.4	1250
1	4851	38.6	1250
1	4876	38.8	1250
1	4901	39	1250
1	4926	39.2	1250
1	4951	39.4	1250
1	4976	39.6	1250
1	5001	39.8	1250
1	5026	40	1250
1	5051	40.2	1250
1	5076	40.4	1250
1	5101	40.6	1250
1	5126	40.8	1250
1	5151	41	1250
1	5176	41.2	1250
1	5201	41.4	1250
1	5226	41.6	1250
1	5251	41.8	1250
1	5276	42	1250
1	5301	42.2	1250
1	5326	42.4	1250
1	5351	42.6	1250
1	5376	42.8	1250
1	5401	43	1250
1	5426	43.2	1250
1	5451	43.4	1250
1	5476	43.6	1250
1	5501	43.8	1250
1	5526	44	1250
1	5551	44.2	1250
1	5576	44.4	1250
1	5601	44.6	1250
1	5626	44.8	1250
1	5651	45	1250
1	5676	45.2	1250
1	5701	45.4	1250
1	5726	45.6	1250
1	5751	45.8	1250
1	5776	46	1250
1	5801	46.2	1250
1	5826	46.4	1250
1	5851	46.6	1250
1	5876	46.8	1250
1	5901	47	1250
1	5926	47.2	1250
1	5951	47.4	1250
1	5976	47.6	1250
1	6001	47.8	1250
1	6026	48	1250
1	6051	48.2	1250
1	6076	48.4	1250
1	6101	48.6	1250
1	6126	48.8	1250
1	6151	49	1250
1	6176	49.2	1250
1	6201	49.4	1250
1	6226	49.6	1250
1	6251	49.8	1250
1	6276	50	1250
1	6301	50.2	1250
1	6326	50.4	1250
1	6351	50.6	1250
1	6376	50.8	1250
1	6401	51	1250
1	6426	51.2	1250
1	6451	51.4	1250
1	6476	51.6	1250
1	6501	51.8	1250
1	6526	52	1250
1	6551	52.2	1250
1	6576	52.4	1250
1	6601	52.6	1250
1	6626	52.8	1250
1	6651	53	1250
1	6676	53.2	1250
1	6701	53.4	1250
1	6726	53.6	1250
1	6751	53.8	1250
1	6776	54	1250
1	6801	54.2	1250
1	6826	54.4	1250
1	6851	54.6	1250
1	6876	54.8	1250
1	6901	55	1250
1	6926	55.2	1250
1	6951	55.4	1250
1	6976	55.6	1250
1	7001	55.8	1250
1	7026	56	1250
1	7051	56.2	1250
1	7076	56.4	1250
1	7101	56.6	1250
1	7126	56.8	1250
1	7151	57	1250
1	7176	57.2	1250
1	7201	57.4	1250
1	7226	57.6	1250
1	7251	57.8	1250
1	7276	58	1250
1	7301	58.2	1250
1	7326	58.4	1250
1	7351	58.6	1250
1	7376	58.8	1250
1	7401	59	1250
1	7426	59.2	1250
1	7451	59.4	1250
1	7476	59.6	1250
1	7501	59.8	1250
1	7526	60	1250
1	7551	60.2	1250
1	7576	60.4	1250
1	7601	60.6	1250
1	7626	60.8	1250
1	7651	61	1250
1	7676	61.2	1250
1	7701	61.4	1250
1	7726	61.6	1250
1	7751	61.8	1250
1	7776	62	1250
1	7801	62.2	1250
1	7826	62.4	1250
1	7851	62.6	1250
1	7876	62.8	1250
1	7901	63	1250
1	7926	63.2	1250
1	7951	63.4	1250
1	7976	63.6	1250
1	8001	63.8	1250
1	8026	64	1250
1	8051	64.2	1250
1	8076	64.4	1250
1	8101	64.6	1250
1	8126	64.8	1250
1	8151	65	1250
1	8176	65.2	1250
1	8201	65.4	1250
1	8226	65.6	1250
1	8251	65.8	1250
1	8276	66	1250
1	8301	66.2	1250
1	8326	66.4	1250
1	8351	66.6	1250
1	8376	66.8	1250
1	8401	67	1250
1	8426	67.2	1250
1	8451	67.4	1250
1	8476	67.6	1250
1	8501	67.8	1250
1	8526	68	1250
1	8551	68.2	1250
1	8576	68.4	1250
1	8601	68.6	1250
1	8626	68.8	1250
1	8651	69	1250
1	8676	69.2	1250
1	8701	69.4	1250
1	8726	69.6	1250
1	8751	69.8	1250
1	8776	70	1250
1	8801	70.2	1250
1	8826	70.4	1250
1	8851	70.6	1250
1	8876	70.8	1250
1	8901	71	1250
1	8926	71.2	1250
1	8951	71.4	1250
1	8976	71.6	1250
1	9001	71.8	1250
1	9026	72	1250
1	9051	72.2	1250
1	9076	72.4	1250
1	9101	72.6	1250
1	9126	72.8	1250
1	9151	73	1250
1	9176	73.2	1250
1	9201	73.4	1250
1	9226	73.6	1250
1	9251	73.8	1250
1	9276	74	1250
1	9301	74.2	1250
1	9326	74.4	1250
1	9351	74.6	1250
1	9376	74.8	1250
1	9401	75	1250
1	9426	75.2	1250
1	9451	75.4	1250
1	9476	75.6	1250
1	9501	75.8	1250
1	9526	76	1250
1	9551	76.2	1250
1	9576	76.4	1250
1	9601	76.6	1250
1	9626	76.8	1250
1	9651	77	1250
1	9676	77.2	1250
1	9701	77.4	1250
1	9726	77.6	1250
1	9751	77.8	1250
1	9776	78	1250
1	9801	78.2	1250
1	9826	78.4	1250
1	9851	78.6	1250
1	9876	78.8	1250
1	9901	79	1250
1	9926	79.2	1250
1	9951	79.4	1250
1	9976	79.6	1250
1	10001	79.8	1250
1	10026	80	1250
1	10051	80.2	1250
1	10076	80.4	1250
1	10101	80.6	1250
1	10126	80.8	1250
1	10151	81	1250
1	10176	81.2	1250
1	10201	81.4	1250
1	10226	81.6	1250
1	10251	81.8	1250
1	10276	82	1250
1	10301	82.2	1250
1	10326	82.4	1250
1	10351	82.6	1250
1	10376	82.8	1250
1	10401	83	1250
1	10426	83.2	1250
1	10451	83.4	1250
1	10476	83.6	1250
1	10501	83.8	1250
1	10526	84	1250
1	10551	84.2	1250
1	10576	84.4	1250
1	10601	84.6	1250
1	10626	84.8	1250
1	10651	85	1250
1	10676	85.2	1250
1	10701	85.4	1250
1	10726	85.6	1250
1	10751	85.8	1250
1	10776	86	1250
1	10801	86.2	1250
1	10826	86.4	1250
1	10851	86.6	1250
1	10876	86.8	1250
1	10901	87	1250
1	10926	87.2	1250
1	10951	87.4	1250
1	10976	87.6	1250
1	11001	87.8	1250
1	11026	88	1250
1	11051	88.2	1250
1	11076	88.4	1250
1	11101	88.6	1250
1	11126	88.8	1250
1	11151	89	1250
1	11176	89.2	1250
1	11201	89.4	1250
1	11226	89.6	1250
1	11251	89.8	1250
1	11276	90	1250
1	11301	90.2	1250
1	11326	90.4	1250
1	11351	90.6	1250
1	11376	90.8	1250
1	11401	91	1250
1	11426	91.2	1250
1	11451	91.4	1250
1	11476	91.6	1250
1	11501	91.8	1250
1	11526	92	1250
1	11551	92.2	1250
1	11576	92.4	1250
1	11601	92.6	1250
1	11626	92.8	1250
1	11651	93	1250
1	11676	93.2	1250
1	11701	93.4	1250
1	11726	93.6	1250
1	11751	93.8	1250
1	11776	94	1250
1	11801	94.2	1250
1	11826	94.4	1250
1	11851	94.6	1250
1	11876	94.8	1250
1	11901	95	1250
1	11926	95.2	1250
1	11951	95.4	1250
1	11976	95.6	1250
1	12001	95.8	1250
1	12026	96	1250
1	12051	96.2	1250
1	12076	96.4	1250
1	12101	96.6	1250
1	12126	96.8	1250
1	12151	97	1250
1	12176	97.2	1250
1	12201	97.4	1250
1	12226	97.6	1250
1	12251	97.8	1250
1	12276	98	1250
1	12301	98.2	1250
1	12326	98.4	1250
1	12351	98.6	1250
1	12376	98.8	1250
1	12401	99	1250
1	12426	99.2	1250
1	12451	99.4	1250
1	12476	99.6	1250
1	12501	99.8	1250
1	12526	100	1250
1	12551	100.2	1250
1	12576	100.4	1250
1	12601	100.6	1250
1	12626	100.8	1250
1	12651	101	1250
1	12676	101.2	1250
1	12701	101.4	1250
1	12726	101.6	1250
1	12751	101.8	1250
1	12776	102	1250
1	12801	102.2	1250
1	12826	102.4	1250
1	12851	102.6	1250
1	12876	102.8	1250
1	12901	103	1250
1	12926	103.2	1250
1	12951	103.4	1250
1	12976	103.6	1250
1	13001	103.8	1250
1	13026	104	1250
1	13051	104.2	1250
1	13076	104.4	1250
1	13101	104.6	1250
1	13126	104.8	1250
1	13151	105	1250
1	13176	105.2	1250
1	13201	105.4	1250
1	13226	105.6	1250
1	13251	105.8	1250
1	13276	106	1250
1	13301	106.2	1250
1	13326	106.4	1250
1	13351	106.6	1250
1	13376	106.8	1250
1	13401	107	1250
1	13426	107.2	1250
1	13451	107.4	1250
1	13476	107.6	1250
1	13501	107.8	1250
1	13526	108	1250
1	13551	108.2	1250
1	13576	108.4	1250
1	13601	108.6	1250
1	13626	108.8	1250
1	13651	109	1250
1	13676	109.2	1250
1	13701	109.4	1250
1	13726	109.6	1250
1	13751	109.8	1250
1	13776	110	1250
1	13801	110.2	1250
1	13826	110.4	1250
1	13851	110.6	1250
1	13876	110.8	1250
1	13901	111	1250
1	13926	111.2	1250
1	13951	111.4	1250
1	13976	111.6	1250
1	14001	111.8	1250
1	14026	112	1250
1	14051	112.2	1250
1	14076	112.4	1250
1	14101	112.6	1250
1	14126	112.8	1250
1	14151	113	1250
1	14176	113.2	1250
1	14201	113.4	1250
1	14226	113.6	1250
1	14251	113.8	1250
1	14276	114	1250
1	14301	114.2	1250
1	14326	114.4	1250
1	14351	114.6	1250
1	14376	114.8	1250
1	14401	115	1250
1	14426	115.2	1250
1	14451	115.4	1250
1	14476	115.6	1250
1	14501	115.8	1250
1	14526	116	1250
1	14551	116.2	1250
1	14576	116.4	1250
1	14601	116.6	1250
1	14626	116.8	1250
1	14651	117	1250
1	14676	117.2	1250
1	14701	117.4	1250
1	14726	117.6	1250
1	14751	117.8	1250
1	14776	118	1250
1	14801	118.2	1250
1	14826	118.4	1250
1	14851	118.6	1250
1	14876	118.8	1250
1	14901	119	1250
1	14926	119.2	1250
1	14951	119.4	1250
1	14976	119.6	1250
1	15001	119.8	1250
1	15026	120	1250
1	15051	120.2	1250
1	15076	120.4	1250
1	15137	120.6	1250
1	15162	120.8	1250
1	15187	121	1250
1	15212	121.2	1250
1	15237	121.4	1250
1	15262	121.6	1250
1	15287	121.8	1250
1	15312	122	1250
1	15337	122.2	1250
1	15362	122.4	1250
1	15387	122.6	1250
1	15412	122.8	1250
1	15437	123	1250
1	15462	123.2	1250
1	15487	123.4	1250
1	15512	123.6	1250
1	15537	123.8	1250
1	15562	124	1250
1	15587	124.2	1250
1	15612	124.4	1250
1	15637	124.6	1250
1	15662	124.8	1250
1	15687	125	1250
1	15712	125.2	1250
1	15737	125.4	1250
1	15762	125.6	1250
1	15787	125.8	1250
1	15812	126	1250
1	15837	126.2	1250
1	15862	126.4	1250
1	15887	126.6	1250
1	15912	126.8	1250
1	15937	127	1250
1	15962	127.2	1250
1	15987	127.4	1250
1	16012	127.6	1250
1	16037	127.8	1250
1	16062	128	1250
1	16087	128.2	1250
1	16112	128.4	1250
1	16137	128.6	1250
1	16162	128.8	1250
1	16187	129	1250
1	16212	129.2	1250
1	16237	129.4	1250
1	16262	129.6	1250
1	16287	129.8	1250
1	16312	130	1250
1	16337	130.2	1250
1	16362	130.4	1250
1	16387	130.6	1250
1	16412	130.8	1250
1	16437	131	1250
1	16462	131.2	1250
1	16487	131.4	1250
1	16512	131.6	1250
1	16537	131.8	1250
1	16562	132	1250
1	16587	132.2	1250
1	16612	132.4	1250
1	16637	132.6	1250
1	16662	132.8	1250
1	16687	133	1250
1	16712	133.2	1250
1	16737	133.4	1250
1	16762	133.6	1250
1	16787	133.8	1250
1	16812	134	1250
1	16837	134.2	1250
1	16862	134.4	1250
1	16887	134.6	1250
1	16912	134.8	1250
1	16937	135	1250
1	16962	135.2	1250
1	16987	135.4	1250
1	17012	135.6	1250
1	17037	135.8	1250
1	17062	136	1250
1	17087	136.2	1250
1	17112	136.4	1250
1	17137	136.6	1250
1	17162	136.8	1250
1	17187	137	1250
1	17212	137.2	1250
1	17237	137.4	1250
1	17262	137.6	1250
1	17287	137.8	1250
1	17312	138	1250
1	17337	138.2	1250
1	17362	138.4	1250
1	17387	138.6	1250
1	17412	138.8	1250
1	17437	139	1250
1	17462	139.2	1250
1	17487	139.4	1250
1	17512	139.6	1250
1	17537	139.8	1250
1	17562	140	1250
1	17587	140.2	1250
1	17612	140.4	1250
1	17637	140.6	1250
1	17662	140.8	1250
1	17687	141	1250
1	17712	141.2	1250
1	17737	141.4	1250
1	17762	141.6	1250
1	17787	141.8	1250
1	17812	142	1250
1	17837	142.2	1250
1	17862	142.4	1250
1	17887	142.6	1250
1	17912	142.8	1250
1	17937	143	1250
1	17962	143.2	1250
1	17987	143.4	1250
1	18012	143.6	1250
1	18037	143.8	1250
1	18062	144	1250
1	18087	144.2	1250
1	18112	144.4	1250
1	18137	144.6	1250
1	18162	144.8	1250
1	18187	145	1250
1	18212	145.2	1250
1	18237	145.4	1250
1	18262	145.6	1250
1	18287	145.8	1250
1	18312	146	1250
1	18337	146.2	1250
1	18362	146.4	1250
1	18387	146.6	1250
1	18412	146.8	1250
1	18437	147	1250
1	18462	147.2	1250
1	18487	147.4	1250
1	18512	147.6	1250
1	18537	147.8	1250
1	18562	148	1250
1	18587	148.2	1250
1	18612	148.4	1250
1	18637	148.6	1250
1	18662	148.8	1250
1	18687	149	1250
1	18712	149.2	1250
1	18737	149.4	1250
1	18762	149.6	1250
1	18787	149.8	1250
1	18812	150	1250
1	18837	150.2	1250
1	18862	150.4	1250
1	18887	150.6	1250
1	18912	150.8	1250
1	18937	151	1250
1	18962	151.2	1250
1	18987	151.4	1250
1	19012	151.6	1250
1	19037	151.8	1250
1	19062	152	1250
1	19087	152.2	1250
1	19112	152.4	1250
1	19137	152.6	1250
1	19162	152.8	1250
1	19187	153	1250
1	19212	153.2	1250
1	19237	153.4	1250
1	19262	153.6	1250
1	19287	153.8	1250
1	19312	154	1250
1	19337	154.2	1250
1	19362	154.4	1250
1	19387	154.6	1250
1	19412	154.8	1250
1	19437	155	1250
1	19462	155.2	1250
1	19487	155.4	1250
1	19512	155.6	1250
1	19537	155.8	1250
1	19562	156	1250
1	19587	156.2	1250
1	19612	156.4	1250
1	19637	156.6	1250
1	19662	156.8	1250
1	19687	157	1250
1	19712	157.2	1250
1	19737	157.4	1250
1	19762	157.6	1250
1	19787	157.8	1250
1	19812	158	1250
1	19837	158.2	1250
1	19862	158.4	1250
1	19887	158.6	1250
1	19912	158.8	1250
1	19937	159	1250
1	19962	159.2	1250
1	19987	159.4	1250
1	20012	159.6	1250
1	20037	159.8	1250
1	20062	160	1250
1	20087	160.2	1250
1	20112	160.4	1250
1	20137	160.6	1250
1	20162	160.8	1250
1	20187	161	1250
1	20212	161.2	1250
1	20237	161.4	1250
1	20262	161.6	1250
1	20287	161.8	1250
1	20312	162	1250
1	20337	162.2	1250
1	20362	162.4	1250
1	20387	162.6	1250
1	20412	162.8	1250
1	20437	163	1250
1	20462	163.2	1250
1	20487	163.4	1250
1	20512	163.6	1250
1	20537	163.8	1250
1	20562	164	1250
1	20587	164.2	1250
1	20612	164.4	1250
1	20637	164.6	1250
1	20662	164.8	1250
1	20687	165	1250
1	20712	165.2	1250
1	20737	165.4	1250
1	20762	165.6	1250
1	20787	165.8	1250
1	20812	166	1250
1	20837	166.2	1250
1	20862	166.4	1250
1	20887	166.6	1250
1	20912	166.8	1250
1	20937	167	1250
1	20962	167.2	1250
1	20987	167.4	1250
1	21012	167.6	1250
1	21037	167.8	1250
1	21062	168	1250
1	21087	168.2	1250
1	21112	168.4	1250
1	21137	168.6	1250
1	21162	168.8	1250
1	21187	169	1250
1	21212	169.2	1250
1	21237	169.4	1250
1	21262	169.6	1250
1	21287	169.8	1250
1	21312	170	1250
1	21337	170.2	1250
1	21362	170.4	1250
1	21387	170.6	1250
1	21412	170.8	1250
1	21437	171	1250
1	21462	171.2	1250
1	21487	171.4	1250
1	21512	171.6	1250
1	21537	171.8	1250
1	21562	172	1250
1	21587	172.2	1250
1	21612	172.4	1250
1	21637	172.6	1250
1	21662	172.8	1250
1	21687	173	1250
1	21712	173.2	1250
1	21737	173.4	1250
1	21762	173.6	1250
1	21787	173.8	1250
1	21812	174	1250
1	21837	174.2	1250
1	21862	174.4	1250
1	21887	174.6	1250
1	21912	174.8	1250
1	21937	175	1250
1	21962	175.2	1250
1	21987	175.4	1250
1	22012	175.6	1250
1	22037	175.8	1250
1	22062	176	1250
1	22087	176.2	1250
1	22112	176.4	1250
1	22137	176.6	1250
1	22162	176.8	1250
1	22187	177	1250
1	22212	177.2	1250
1	22237	177.4	1250
1	22262	177.6	1250
1	22287	177.8	1250
1	22312	178	1250
1	22337	178.2	1250
1	22362	178.4	1250
1	22387	178.6	1250
1	22412	178.8	1250
1	22437	179	1250
1	22462	179.2	1250
1	22487	179.4	1250
1	22512	179.6	1250
1	22537	179.8	1250
1	22562	180	1250
1	22587	180.2	1250
1	22612	180.4	1250
1	22637	180.6	1250
1	22662	180.8	1250
1	22687	181	1250
1	22712	181.2	1250
1	22737	181.4	1250
1	22762	181.6	1250
1	22787	181.8	1250
1	22812	182	1250
1	22837	182.2	1250
1	22862	182.4	1250
1	22887	182.6	1250
1	22912	182.8	1250
1	22937	183	1250
1	22962	183.2	1250
1	22987	183.4	1250
1	23012	183.6	1250
1	23037	183.8	1250
1	23062	184	1250
1	23087	184.2	1250
1	23112	184.4	1250
1	23137	184.6	1250
1	23162	184.8	1250
1	23187	185	1250
1	23212	185.2	1250
1	23237	185.4	1250
1	23262	185.6	1250
1	23287	185.8	1250
1	23312	186	1250
1	23337	186.2	1250
1	23362	186.4	1250
1	23387	186.6	1250
1	23412	186.8	1250
1	23437	187	1250
1	23462	187.2	1250
1	23487	187.4	1250
1	23512	187.6	1250
1	23537	187.8	1250
1	23562	188	1250
1	23587	188.2	1250
1	23612	188.4	1250
1	23637	188.6	1250
1	23662	188.8	1250
1	23687	189	1250
1	23712	189.2	1250
1	23737	189.4	1250
1	23762	189.6	1250
1	23787	189.8	1250
1	23812	190	1250
1	23837	190.2	1250
1	23862	190.4	1250
1	23887	190.6	1250
1	23912	190.8	1250
1	23937	191	1250
1	23962	191.2	1250
1	23987	191.4	1250
1	24012	191.6	1250
1	24037	191.8	1250
1	24062	192	1250
1	24087	192.2	1250
1	24112	192.4	1250
1	24137	192.6	1250
1	24162	192.8	1250
1	24187	193	1250
1	24212	193.2	1250
1	24237	193.4	1250
1	24262	193.6	1250
1	24287	193.8	1250
1	24312	194	1250
1	24337	194.2	1250
1	24362	194.4	1250
1	24387	194.6	1250
1	24412	194.8	1250
1	24437	195	1250
1	24462	195.2	1250
1	24487	195.4	1250
1	24512	195.6	1250
1	24537	195.8	1250
1	24562	196	1250
1	24587	196.2	1250
1	24612	196.4	1250
1	24637	196.6	1250
1	24662	196.8	1250
1	24687	197	1250
1	24712	197.2	1250
1	24737	197.4	1250
1	24762	197.6	1250
1	24787	197.8	1250
1	24812	198	1250
1	24837	198.2	1250
1	24862	198.4	1250
1	24887	198.6	1250
1	24912	198.8	1250
1	24937	199	1250
1	24962	199.2	1250
1	24987	199.4	1250
1	25012	199.6	1250
1	25037	199.8	1250
1	25062	200	1250
1	25087	200.2	1250
1	25112	200.4	1250
1	25137	200.6	1250
1	25162	200.8	1250
1	25187	201	1250
1	25212	201.2	1250
1	25237	201.4	1250
1	25262	201.6	1250
1	25287	201.8	1250
1	25312	202	1250
1	25337	202.2	1250
1	25362	202.4	1250
1	25387	202.6	1250
1	25412	202.8	1250
1	25437	203	1250
1	25462	203.2	1250
1	25487	203.4	1250
1	25512	203.6	1250
1	25537	203.8	1250
1	25562	204	1250
1	25587	204.2	1250
1	25612	204.4	1250
1	25637	204.6	1250
1	25662	204.8	1250
1	25687	205	1250
1	25712	205.2	1250
1	25737	205.4	1250
1	25762	205.6	1250
1	25787	205.8	1250
1	25812	206	1250
1	25837	206.2	1250
1	25862	206.4	1250
1	25887	206.6	1250
1	25912	206.8	1250
1	25937	207	1250
1	25962	207.2	1250
1	25987	207.4	1250
1	26012	207.6	1250
1	26037	207.8	1250
1	26062	208	1250
1	26087	208.2	1250
1	26112	208.4	1250
1	26137	208.6	1250
1	26162	208.8	1250
1	26187	209	1250
1	26212	209.2	1250
1	26237	209.4	1250
1	26262	209.6	1250
1	26287	209.8	1250
1	26312	210	1250
1	26337	210.2	1250
1	26362	210.4	1250
1	26387	210.6	1250
1	26412	210.8	1250
1	26437	211	1250
1	26462	211.2	1250
1	26487	211.4	1250
1	26512	211.6	1250
1	26537	211.8	1250
1	26562	212	1250
1	26587	212.2	1250
1	26612	212.4	1250
1	26637	212.6	1250
1	26662	212.8	1250
1	26687	213	1250
1	26712	213.2	1250
1	26737	213.4	1250
1	26762	213.6	1250
1	26787	213.8	1250
1	26812	214	1250
1	26837	214.2	1250
1	26862	214.4	1250
1	26887	214.6	1250
1	26912	214.8	1250
1	26937	215	1250
1	26962	215.2	1250
1	26987	215.4	1250
1	27012	215.6	1250
1	27037	215.8	1250
1	27062	216	1250
1	27087	216.2	1250
1	27112	216.4	1250
1	27137	216.6	1250
1	27162	216.8	1250
1	27187	217	1250
1	27212	217.2	1250
1	27237	217.4	1250
1	27262	217.6	1250
1	27287	217.8	1250
1	27312	218	1250
1	27337	218.2	1250
1	27362	218.4	1250
1	27387	218.6	1250
1	27412	218.8	1250
1	27437	219	1250
1	27462	219.2	1250
1	27487	219.4	1250
1	27512	219.6	1250
1	27537	219.8	1250
1	27562	220	1250
1	27587	220.2	1250
1	27612	220.4	1250
1	27637	220.6	1250
1	27662	220.8	1250
1	27687	221	1250
1	27712	221.2	1250
1	27737	221.4	1250
1	27762	221.6	1250
1	27787	221.8	1250
1	27812	222	1250
1	27837	222.2	1250
1	27862	222.4	1250
1	27887	222.6	1250
1	27912	222.8	1250
1	27937	223	1250
1	27962	223.2	1250
1	27987	223.4	1250
1	28012	223.6	1250
1	28037	223.8	1250
1	28062	224	1250
1	28087	224.2	1250
1	28112	224.4	1250
1	28137	224.6	1250
1	28162	224.8	1250
1	28187	225	1250
1	28212	225.2	1250
1	28237	225.4	1250
1	28262	225.6	1250
1	28287	225.8	1250
1	28312	226	1250
1	28337	226.2	1250
1	28362	226.4	1250
1	28387	226.6	1250
1	28412	226.8	1250
1	28437	227	1250
1	28462	227.2	1250
1	28487	227.4	1250
1	28512	227.6	1250
1	28537	227.8	1250
1	28562	228	1250
1	28587	228.2	1250
1	28612	228.4	1250
1	28637	228.6	1250
1	28662	228.8	1250
1	28687	229	1250
1	28712	229.2	1250
1	28737	229.4	1250
1	28762	229.6	1250
1	28787	229.8	1250
1	28812	230	1250
1	28837	230.2	1250
1	28862	230.4	1250
1	28887	230.6	1250
1	28912	230.8	1250
1	28937	231	1250
1	28962	231.2	1250
1	28987	231.4	1250
1	29012	231.6	1250
1	29037	231.8	1250
1	29062	232	1250
1	29087	232.2	1250
1	29112	232.4	1250
1	29137	232.6	1250
1	29162	232.8	1250
1	29187	233	1250
1	29212	233.2	1250
1	29237	233.4	1250
1	29262	233.6	1250
1	29287	233.8	1250
1	29312	234	1250
1	29337	234.2	1250
1	29362	234.4	1250
1	29387	234.6	1250
1	29412	234.8	1250
1	29437	235	1250
1	29462	235.2	1250
1	29487	235.4	1250
1	29512	235.6	1250
1	29537	235.8	1250
1	29562	236	1250
1	29587	236.2	1250
1	29612	236.4	1250
1	29637	236.6	1250
1	29662	236.8	1250
1	29687	237	1250
1	29712	237.2	1250
1	29737	237.4	1250
1	29762	237.6	1250
1	29787	237.8	1250
1	29812	238	1250
1	29837	238.2	1250
1	29862	238.4	1250
1	29887	238.6	1250
1	29912	238.8	1250
1	29937	239	1250
1	29962	239.2	1250
1	29987	239.4	1250
1	30012	239.6	1250
1	30037	239.8	1250
1	30062	240	1250
1	30087	240.2	1250
1	30112	240.4	1250
1	30137	240.6	1250
1	30198	240.8	1250
1	30223	241	1250
1	30248	241.2	1250
1	30273	241.4	1250
1	30298	241.6	1250
1	30323	241.8	1250
1	30348	242	1250
1	30373	242.2	1250
1	30398	242.4	1250
1	30423	242.6	1250
1	30448	242.8	1250
1	30473	243	1250
1	30498	243.2	1250
1	30523	243.4	1250
1	30548	243.6	1250
1	30573	243.8	1250
1	30598	244	1250
1	30623	244.2	1250
1	30648	244.4	1250
1	30673	244.6	1250
1	30698	244.8	1250
1	30723	245	1250
1	30748	245.2	1250
1	30773	245.4	1250
1	30798	245.6	1250
1	30823	245.8	1250
1	30848	246	1250
1	30873	246.2	1250
1	30898	246.4	1250
1	30923	246.6	1250
1	30948	246.8	1250
1	30973	247	1250
1	30998	247.2	1250
1	31023	247.4	1250
1	31048	247.6	1250
1	31073	247.8	1250
1	31098	248	1250
1	31123	248.2	1250
1	31148	248.4	1250
1	31173	248.6	1250
1	31198	248.8	1250
1	31223	249	1250
1	31248	249.2	1250
1	31273	249.4	1250
1	31298	249.6	1250
1	31323	249.8	1250
1	31348	250	1250
3	17	0.2	1258
3	78	0.4	1258
3	103	0.6	1258
3	128	0.8	1258
3	153	1	1258
3	178	1.2	1258
3	203	1.4	1258
3	228	1.6	1258
3	253	1.8	1258
3	278	2	1258
3	303	2.2	1258
3	328	2.4	1258
3	353	2.6	1258
3	378	2.8	1258
3	403	3	1258
3	428	3.2	1258
3	453	3.4	1258
3	478	3.6	1258
3	503	3.8	1258
3	528	4	1258
3	553	4.2	1258
3	578	4.4	1258
3	603	4.6	1258
3	628	4.8	1258
3	653	5	1258
3	678	5.2	1258
3	703	5.4	1258
3	728	5.6	1258
3	753	5.8	1258
3	778	6	1258
3	803	6.2	1258
3	828	6.4	1258
3	853	6.6	1258
3	878	6.8	1258
3	903	7	1258
3	928	7.2	1258
3	953	7.4	1258
3	978	7.6	1258
3	1003	7.8	1258
3	1028	8	1258
3	1053	8.2	1258
3	1078	8.4	1258
3	1103	8.6	1258
3	1128	8.8	1258
3	1153	9	1258
3	1178	9.2	1258
3	1203	9.4	1258
3	1228	9.6	1258
3	1253	9.8	1258
3	1278	10	1258
3	1303	10.2	1258
3	1328	10.4	1258
3	1353	10.6	1258
3	1378	10.8	1258
3	1403	11	1258
3	1428	11.2	1258
3	1453	11.4	1258
3	1478	11.6	1258
3	1503	11.8	1258
3	1528	12	1258
3	1553	12.2	1258
3	1578	12.4	1258
3	1603	12.6	1258
3	1628	12.8	1258
3	1653	13	1258
3	1678	13.2	1258
3	1703	13.4	1258
3	1728	13.6	1258
3	1753	13.8	1258
3	1778	14	1258
3	1803	14.2	1258
3	1828	14.4	1258
3	1853	14.6	1258
3	1878	14.8	1258
3	1903	15	1258
3	1928	15.2	1258
3	1953	15.4	1258
3	1978	15.6	1258
3	2003	15.8	1258
3	2028	16	1258
3	2053	16.2	1258
3	2078	16.4	1258
3	2103	16.6	1258
3	2128	16.8	1258
3	2153	17	1258
3	2178	17.2	1258
3	2203	17.4	1258
3	2228	17.6	1258
3	2253	17.8	1258
3	2278	18	1258
3	2303	18.2	1258
3	2328	18.4	1258
3	2353	18.6	1258
3	2378	18.8	1258
3	2403	19	1258
3	2428	19.2	1258
3	2453	19.4	1258
3	2478	19.6	1258
3	2503	19.8	1258
3	2528	20	1258
3	2553	20.2	1258
3	2578	20.4	1258
3	2603	20.6	1258
3	2628	20.8	1258
3	2653	21	1258
3	2678	21.2	1258
3	2703	21.4	1258
3	2728	21.6	1258
3	2753	21.8	1258
3	2778	22	1258
3	2803	22.2	1258
3	2828	22.4	1258
3	2853	22.6	1258
3	2878	22.8	1258
3	2903	23	1258
3	2928	23.2	1258
3	2953	23.4	1258
3	2978	23.6	1258
3	3003	23.8	1258