version 2
run DOS-0-20170421-13:46:01-6124
attr configname DOS
attr datetime 20170421-13:46:01
attr experiment DOS
attr inifile omnetpp.ini
attr iterationvars ""
attr iterationvars2 $repetition=0
attr measurement ""
attr network Topo
attr processid 6124
attr repetition 0
attr replication #0
attr resultdir results
attr runnumber 0
attr seedset 0

vector 703  Topo.s1.tcp  tcpRcvQueueBytes  ETV
vector 690  Topo.s1.tcp  "advertised window"  ETV
vector 689  Topo.s1.tcp  "receive window"  ETV
vector 692  Topo.s1.tcp  "sent ack"  ETV
vector 727  Topo.s2.tcp  tcpRcvQueueBytes  ETV
vector 714  Topo.s2.tcp  "advertised window"  ETV
vector 713  Topo.s2.tcp  "receive window"  ETV
vector 716  Topo.s2.tcp  "sent ack"  ETV
vector 751  Topo.s3.tcp  tcpRcvQueueBytes  ETV
vector 738  Topo.s3.tcp  "advertised window"  ETV
vector 737  Topo.s3.tcp  "receive window"  ETV
vector 740  Topo.s3.tcp  "sent ack"  ETV
vector 775  Topo.s4.tcp  tcpRcvQueueBytes  ETV
vector 762  Topo.s4.tcp  "advertised window"  ETV
vector 761  Topo.s4.tcp  "receive window"  ETV
vector 764  Topo.s4.tcp  "sent ack"  ETV
vector 799  Topo.s5.tcp  tcpRcvQueueBytes  ETV
vector 786  Topo.s5.tcp  "advertised window"  ETV
vector 785  Topo.s5.tcp  "receive window"  ETV
vector 788  Topo.s5.tcp  "sent ack"  ETV
vector 823  Topo.s6.tcp  tcpRcvQueueBytes  ETV
vector 810  Topo.s6.tcp  "advertised window"  ETV
vector 809  Topo.s6.tcp  "receive window"  ETV
vector 812  Topo.s6.tcp  "sent ack"  ETV
vector 847  Topo.s7.tcp  tcpRcvQueueBytes  ETV
vector 834  Topo.s7.tcp  "advertised window"  ETV
vector 833  Topo.s7.tcp  "receive window"  ETV
vector 836  Topo.s7.tcp  "sent ack"  ETV
vector 871  Topo.s8.tcp  tcpRcvQueueBytes  ETV
vector 858  Topo.s8.tcp  "advertised window"  ETV
vector 857  Topo.s8.tcp  "receive window"  ETV
vector 860  Topo.s8.tcp  "sent ack"  ETV
vector 895  Topo.RTU1.tcp  tcpRcvQueueBytes  ETV
vector 882  Topo.RTU1.tcp  "advertised window"  ETV
vector 881  Topo.RTU1.tcp  "receive window"  ETV
vector 884  Topo.RTU1.tcp  "sent ack"  ETV
vector 919  Topo.RTU2.tcp  tcpRcvQueueBytes  ETV
vector 906  Topo.RTU2.tcp  "advertised window"  ETV
vector 905  Topo.RTU2.tcp  "receive window"  ETV
vector 908  Topo.RTU2.tcp  "sent ack"  ETV
vector 943  Topo.RTU3.tcp  tcpRcvQueueBytes  ETV
vector 930  Topo.RTU3.tcp  "advertised window"  ETV
vector 929  Topo.RTU3.tcp  "receive window"  ETV
vector 932  Topo.RTU3.tcp  "sent ack"  ETV
vector 967  Topo.RTU4.tcp  tcpRcvQueueBytes  ETV
vector 954  Topo.RTU4.tcp  "advertised window"  ETV
vector 953  Topo.RTU4.tcp  "receive window"  ETV
vector 956  Topo.RTU4.tcp  "sent ack"  ETV
vector 36  Topo.s1.networkLayer.arp  sentReq:vector  ETV
attr title  "ARP request sent, vector"
vector 86  Topo.s2.networkLayer.arp  sentReq:vector  ETV
attr title  "ARP request sent, vector"
vector 136  Topo.s3.networkLayer.arp  sentReq:vector  ETV
attr title  "ARP request sent, vector"
vector 186  Topo.s4.networkLayer.arp  sentReq:vector  ETV
attr title  "ARP request sent, vector"
vector 236  Topo.s5.networkLayer.arp  sentReq:vector  ETV
attr title  "ARP request sent, vector"
vector 297  Topo.s6.networkLayer.arp  sentReq:vector  ETV
attr title  "ARP request sent, vector"
vector 358  Topo.s7.networkLayer.arp  sentReq:vector  ETV
attr title  "ARP request sent, vector"
vector 397  Topo.s8.networkLayer.arp  sentReq:vector  ETV
attr title  "ARP request sent, vector"
vector 548  Topo.RTU1.networkLayer.arp  sentReq:vector  ETV
attr title  "ARP request sent, vector"
vector 573  Topo.RTU2.networkLayer.arp  sentReq:vector  ETV
attr title  "ARP request sent, vector"
vector 598  Topo.RTU3.networkLayer.arp  sentReq:vector  ETV
attr title  "ARP request sent, vector"
vector 623  Topo.RTU4.networkLayer.arp  sentReq:vector  ETV
attr title  "ARP request sent, vector"
vector 47  Topo.s1.eth[0].encap  encapPk:vector(packetBytes)  ETV
attr interpolationmode  none
attr source  encapPk
attr title  "packets encapsulated, vector(packetBytes)"
vector 97  Topo.s2.eth[0].encap  encapPk:vector(packetBytes)  ETV
attr interpolationmode  none
attr source  encapPk
attr title  "packets encapsulated, vector(packetBytes)"
vector 147  Topo.s3.eth[0].encap  encapPk:vector(packetBytes)  ETV
attr interpolationmode  none
attr source  encapPk
attr title  "packets encapsulated, vector(packetBytes)"
vector 197  Topo.s4.eth[0].encap  encapPk:vector(packetBytes)  ETV
attr interpolationmode  none
attr source  encapPk
attr title  "packets encapsulated, vector(packetBytes)"
vector 247  Topo.s5.eth[0].encap  encapPk:vector(packetBytes)  ETV
attr interpolationmode  none
attr source  encapPk
attr title  "packets encapsulated, vector(packetBytes)"
vector 308  Topo.s6.eth[0].encap  encapPk:vector(packetBytes)  ETV
attr interpolationmode  none
attr source  encapPk
attr title  "packets encapsulated, vector(packetBytes)"
vector 369  Topo.s7.eth[0].encap  encapPk:vector(packetBytes)  ETV
attr interpolationmode  none
attr source  encapPk
attr title  "packets encapsulated, vector(packetBytes)"
vector 408  Topo.s8.eth[0].encap  encapPk:vector(packetBytes)  ETV
attr interpolationmode  none
attr source  encapPk
attr title  "packets encapsulated, vector(packetBytes)"
vector 562  Topo.RTU1.eth[0].encap  encapPk:vector(packetBytes)  ETV
attr interpolationmode  none
attr source  encapPk
attr title  "packets encapsulated, vector(packetBytes)"
vector 587  Topo.RTU2.eth[0].encap  encapPk:vector(packetBytes)  ETV
attr interpolationmode  none
attr source  encapPk
attr title  "packets encapsulated, vector(packetBytes)"
vector 612  Topo.RTU3.eth[0].encap  encapPk:vector(packetBytes)  ETV
attr interpolationmode  none
attr source  encapPk
attr title  "packets encapsulated, vector(packetBytes)"
vector 637  Topo.RTU4.eth[0].encap  encapPk:vector(packetBytes)  ETV
attr interpolationmode  none
attr source  encapPk
attr title  "packets encapsulated, vector(packetBytes)"
vector 43  Topo.s1.eth[0].mac  rxPkFromHL:vector(packetBytes)  ETV
attr interpolationmode  none
attr source  rxPkFromHL
attr title  "packet bytes from higher layer, vector(packetBytes)"
vector 93  Topo.s2.eth[0].mac  rxPkFromHL:vector(packetBytes)  ETV
attr interpolationmode  none
attr source  rxPkFromHL
attr title  "packet bytes from higher layer, vector(packetBytes)"
vector 143  Topo.s3.eth[0].mac  rxPkFromHL:vector(packetBytes)  ETV
attr interpolationmode  none
attr source  rxPkFromHL
attr title  "packet bytes from higher layer, vector(packetBytes)"
vector 193  Topo.s4.eth[0].mac  rxPkFromHL:vector(packetBytes)  ETV
attr interpolationmode  none
attr source  rxPkFromHL
attr title  "packet bytes from higher layer, vector(packetBytes)"
vector 243  Topo.s5.eth[0].mac  rxPkFromHL:vector(packetBytes)  ETV
attr interpolationmode  none
attr source  rxPkFromHL
attr title  "packet bytes from higher layer, vector(packetBytes)"
vector 304  Topo.s6.eth[0].mac  rxPkFromHL:vector(packetBytes)  ETV
attr interpolationmode  none
attr source  rxPkFromHL
attr title  "packet bytes from higher layer, vector(packetBytes)"
vector 365  Topo.s7.eth[0].mac  rxPkFromHL:vector(packetBytes)  ETV
attr interpolationmode  none
attr source  rxPkFromHL
attr title  "packet bytes from higher layer, vector(packetBytes)"
vector 404  Topo.s8.eth[0].mac  rxPkFromHL:vector(packetBytes)  ETV
attr interpolationmode  none
attr source  rxPkFromHL
attr title  "packet bytes from higher layer, vector(packetBytes)"
vector 558  Topo.RTU1.eth[0].mac  rxPkFromHL:vector(packetBytes)  ETV
attr interpolationmode  none
attr source  rxPkFromHL
attr title  "packet bytes from higher layer, vector(packetBytes)"
vector 583  Topo.RTU2.eth[0].mac  rxPkFromHL:vector(packetBytes)  ETV
attr interpolationmode  none
attr source  rxPkFromHL
attr title  "packet bytes from higher layer, vector(packetBytes)"
vector 608  Topo.RTU3.eth[0].mac  rxPkFromHL:vector(packetBytes)  ETV
attr interpolationmode  none
attr source  rxPkFromHL
attr title  "packet bytes from higher layer, vector(packetBytes)"
vector 633  Topo.RTU4.eth[0].mac  rxPkFromHL:vector(packetBytes)  ETV
attr interpolationmode  none
attr source  rxPkFromHL
attr title  "packet bytes from higher layer, vector(packetBytes)"
vector 418  Topo.controller.eth[0].mac  rxPkOk:vector(packetBytes)  ETV
attr interpolationmode  none
attr source  rxPkOk
attr title  "packets received OK, vector(packetBytes)"
vector 419  Topo.controller.eth[0].mac  passedUpPk:vector(packetBytes)  ETV
attr interpolationmode  none
attr source  packetSentToUpper
attr title  "packets passed to higher layer, vector(packetBytes)"
vector 38  Topo.s1.eth[0].mac  txPk:vector(packetBytes)  ETV
attr interpolationmode  none
attr source  txPk
attr title  "packets transmitted, vector(packetBytes)"
vector 430  Topo.controller.eth[1].mac  rxPkOk:vector(packetBytes)  ETV
attr interpolationmode  none
attr source  rxPkOk
attr title  "packets received OK, vector(packetBytes)"
vector 431  Topo.controller.eth[1].mac  passedUpPk:vector(packetBytes)  ETV
attr interpolationmode  none
attr source  packetSentToUpper
attr title  "packets passed to higher layer, vector(packetBytes)"
vector 88  Topo.s2.eth[0].mac  txPk:vector(packetBytes)  ETV
attr interpolationmode  none
attr source  txPk
attr title  "packets transmitted, vector(packetBytes)"
vector 442  Topo.controller.eth[2].mac  rxPkOk:vector(packetBytes)  ETV
attr interpolationmode  none
attr source  rxPkOk
attr title  "packets received OK, vector(packetBytes)"
vector 443  Topo.controller.eth[2].mac  passedUpPk:vector(packetBytes)  ETV
attr interpolationmode  none
attr source  packetSentToUpper
attr title  "packets passed to higher layer, vector(packetBytes)"
vector 138  Topo.s3.eth[0].mac  txPk:vector(packetBytes)  ETV
attr interpolationmode  none
attr source  txPk
attr title  "packets transmitted, vector(packetBytes)"
vector 454  Topo.controller.eth[3].mac  rxPkOk:vector(packetBytes)  ETV
attr interpolationmode  none
attr source  rxPkOk
attr title  "packets received OK, vector(packetBytes)"
vector 455  Topo.controller.eth[3].mac  passedUpPk:vector(packetBytes)  ETV
attr interpolationmode  none
attr source  packetSentToUpper
attr title  "packets passed to higher layer, vector(packetBytes)"
vector 188  Topo.s4.eth[0].mac  txPk:vector(packetBytes)  ETV
attr interpolationmode  none
attr source  txPk
attr title  "packets transmitted, vector(packetBytes)"
vector 466  Topo.controller.eth[4].mac  rxPkOk:vector(packetBytes)  ETV
attr interpolationmode  none
attr source  rxPkOk
attr title  "packets received OK, vector(packetBytes)"
vector 467  Topo.controller.eth[4].mac  passedUpPk:vector(packetBytes)  ETV
attr interpolationmode  none
attr source  packetSentToUpper
attr title  "packets passed to higher layer, vector(packetBytes)"
vector 238  Topo.s5.eth[0].mac  txPk:vector(packetBytes)  ETV
attr interpolationmode  none
attr source  txPk
attr title  "packets transmitted, vector(packetBytes)"
vector 478  Topo.controller.eth[5].mac  rxPkOk:vector(packetBytes)  ETV
attr interpolationmode  none
attr source  rxPkOk
attr title  "packets received OK, vector(packetBytes)"
vector 479  Topo.controller.eth[5].mac  passedUpPk:vector(packetBytes)  ETV
attr interpolationmode  none
attr source  packetSentToUpper
attr title  "packets passed to higher layer, vector(packetBytes)"
vector 299  Topo.s6.eth[0].mac  txPk:vector(packetBytes)  ETV
attr interpolationmode  none
attr source  txPk
attr title  "packets transmitted, vector(packetBytes)"
vector 490  Topo.controller.eth[6].mac  rxPkOk:vector(packetBytes)  ETV
attr interpolationmode  none
attr source  rxPkOk
attr title  "packets received OK, vector(packetBytes)"
vector 491  Topo.controller.eth[6].mac  passedUpPk:vector(packetBytes)  ETV
attr interpolationmode  none
attr source  packetSentToUpper
attr title  "packets passed to higher layer, vector(packetBytes)"
vector 360  Topo.s7.eth[0].mac  txPk:vector(packetBytes)  ETV
attr interpolationmode  none
attr source  txPk
attr title  "packets transmitted, vector(packetBytes)"
vector 502  Topo.controller.eth[7].mac  rxPkOk:vector(packetBytes)  ETV
attr interpolationmode  none
attr source  rxPkOk
attr title  "packets received OK, vector(packetBytes)"
vector 503  Topo.controller.eth[7].mac  passedUpPk:vector(packetBytes)  ETV
attr interpolationmode  none
attr source  packetSentToUpper
attr title  "packets passed to higher layer, vector(packetBytes)"
vector 399  Topo.s8.eth[0].mac  txPk:vector(packetBytes)  ETV
attr interpolationmode  none
attr source  txPk
attr title  "packets transmitted, vector(packetBytes)"
vector 553  Topo.RTU1.eth[0].mac  txPk:vector(packetBytes)  ETV
attr interpolationmode  none
attr source  txPk
attr title  "packets transmitted, vector(packetBytes)"
vector 578  Topo.RTU2.eth[0].mac  txPk:vector(packetBytes)  ETV
attr interpolationmode  none
attr source  txPk
attr title  "packets transmitted, vector(packetBytes)"
vector 603  Topo.RTU3.eth[0].mac  txPk:vector(packetBytes)  ETV
attr interpolationmode  none
attr source  txPk
attr title  "packets transmitted, vector(packetBytes)"
vector 628  Topo.RTU4.eth[0].mac  txPk:vector(packetBytes)  ETV
attr interpolationmode  none
attr source  txPk
attr title  "packets transmitted, vector(packetBytes)"
vector 251  Topo.s6.etherMAC[0]  rxPkOk:vector(packetBytes)  ETV
attr interpolationmode  none
attr source  rxPkOk
attr title  "packets received OK, vector(packetBytes)"
vector 252  Topo.s6.etherMAC[0]  passedUpPk:vector(packetBytes)  ETV
attr interpolationmode  none
attr source  packetSentToUpper
attr title  "packets passed to higher layer, vector(packetBytes)"
vector 262  Topo.s6.etherMAC[1]  rxPkOk:vector(packetBytes)  ETV
attr interpolationmode  none
attr source  rxPkOk
attr title  "packets received OK, vector(packetBytes)"
vector 263  Topo.s6.etherMAC[1]  passedUpPk:vector(packetBytes)  ETV
attr interpolationmode  none
attr source  packetSentToUpper
attr title  "packets passed to higher layer, vector(packetBytes)"
vector 312  Topo.s7.etherMAC[0]  rxPkOk:vector(packetBytes)  ETV
attr interpolationmode  none
attr source  rxPkOk
attr title  "packets received OK, vector(packetBytes)"
vector 313  Topo.s7.etherMAC[0]  passedUpPk:vector(packetBytes)  ETV
attr interpolationmode  none
attr source  packetSentToUpper
attr title  "packets passed to higher layer, vector(packetBytes)"
vector 323  Topo.s7.etherMAC[1]  rxPkOk:vector(packetBytes)  ETV
attr interpolationmode  none
attr source  rxPkOk
attr title  "packets received OK, vector(packetBytes)"
vector 324  Topo.s7.etherMAC[1]  passedUpPk:vector(packetBytes)  ETV
attr interpolationmode  none
attr source  packetSentToUpper
attr title  "packets passed to higher layer, vector(packetBytes)"
vector 427  Topo.controller.eth[0].encap  decapPk:vector(packetBytes)  ETV
attr interpolationmode  none
attr source  decapPk
attr title  "packets decapsulated, vector(packetBytes)"
vector 439  Topo.controller.eth[1].encap  decapPk:vector(packetBytes)  ETV
attr interpolationmode  none
attr source  decapPk
attr title  "packets decapsulated, vector(packetBytes)"
vector 451  Topo.controller.eth[2].encap  decapPk:vector(packetBytes)  ETV
attr interpolationmode  none
attr source  decapPk
attr title  "packets decapsulated, vector(packetBytes)"
vector 463  Topo.controller.eth[3].encap  decapPk:vector(packetBytes)  ETV
attr interpolationmode  none
attr source  decapPk
attr title  "packets decapsulated, vector(packetBytes)"
vector 475  Topo.controller.eth[4].encap  decapPk:vector(packetBytes)  ETV
attr interpolationmode  none
attr source  decapPk
attr title  "packets decapsulated, vector(packetBytes)"
vector 487  Topo.controller.eth[5].encap  decapPk:vector(packetBytes)  ETV
attr interpolationmode  none
attr source  decapPk
attr title  "packets decapsulated, vector(packetBytes)"
vector 499  Topo.controller.eth[6].encap  decapPk:vector(packetBytes)  ETV
attr interpolationmode  none
attr source  decapPk
attr title  "packets decapsulated, vector(packetBytes)"
vector 511  Topo.controller.eth[7].encap  decapPk:vector(packetBytes)  ETV
attr interpolationmode  none
attr source  decapPk
attr title  "packets decapsulated, vector(packetBytes)"
vector 413  Topo.controller.networkLayer.arp  sentReply:vector  ETV
attr title  "ARP replies sent, vector"
vector 426  Topo.controller.eth[0].encap  encapPk:vector(packetBytes)  ETV
attr interpolationmode  none
attr source  encapPk
attr title  "packets encapsulated, vector(packetBytes)"
vector 438  Topo.controller.eth[1].encap  encapPk:vector(packetBytes)  ETV
attr interpolationmode  none
attr source  encapPk
attr title  "packets encapsulated, vector(packetBytes)"
vector 450  Topo.controller.eth[2].encap  encapPk:vector(packetBytes)  ETV
attr interpolationmode  none
attr source  encapPk
attr title  "packets encapsulated, vector(packetBytes)"
vector 462  Topo.controller.eth[3].encap  encapPk:vector(packetBytes)  ETV
attr interpolationmode  none
attr source  encapPk
attr title  "packets encapsulated, vector(packetBytes)"
vector 474  Topo.controller.eth[4].encap  encapPk:vector(packetBytes)  ETV
attr interpolationmode  none
attr source  encapPk
attr title  "packets encapsulated, vector(packetBytes)"
vector 486  Topo.controller.eth[5].encap  encapPk:vector(packetBytes)  ETV
attr interpolationmode  none
attr source  encapPk
attr title  "packets encapsulated, vector(packetBytes)"
vector 498  Topo.controller.eth[6].encap  encapPk:vector(packetBytes)  ETV
attr interpolationmode  none
attr source  encapPk
attr title  "packets encapsulated, vector(packetBytes)"
vector 510  Topo.controller.eth[7].encap  encapPk:vector(packetBytes)  ETV
attr interpolationmode  none
attr source  encapPk
attr title  "packets encapsulated, vector(packetBytes)"
vector 422  Topo.controller.eth[0].mac  rxPkFromHL:vector(packetBytes)  ETV
attr interpolationmode  none
attr source  rxPkFromHL
attr title  "packet bytes from higher layer, vector(packetBytes)"
vector 434  Topo.controller.eth[1].mac  rxPkFromHL:vector(packetBytes)  ETV
attr interpolationmode  none
attr source  rxPkFromHL
attr title  "packet bytes from higher layer, vector(packetBytes)"
vector 446  Topo.controller.eth[2].mac  rxPkFromHL:vector(packetBytes)  ETV
attr interpolationmode  none
attr source  rxPkFromHL
attr title  "packet bytes from higher layer, vector(packetBytes)"
vector 458  Topo.controller.eth[3].mac  rxPkFromHL:vector(packetBytes)  ETV
attr interpolationmode  none
attr source  rxPkFromHL
attr title  "packet bytes from higher layer, vector(packetBytes)"
vector 470  Topo.controller.eth[4].mac  rxPkFromHL:vector(packetBytes)  ETV
attr interpolationmode  none
attr source  rxPkFromHL
attr title  "packet bytes from higher layer, vector(packetBytes)"
vector 482  Topo.controller.eth[5].mac  rxPkFromHL:vector(packetBytes)  ETV
attr interpolationmode  none
attr source  rxPkFromHL
attr title  "packet bytes from higher layer, vector(packetBytes)"
vector 494  Topo.controller.eth[6].mac  rxPkFromHL:vector(packetBytes)  ETV
attr interpolationmode  none
attr source  rxPkFromHL
attr title  "packet bytes from higher layer, vector(packetBytes)"
vector 506  Topo.controller.eth[7].mac  rxPkFromHL:vector(packetBytes)  ETV
attr interpolationmode  none
attr source  rxPkFromHL
attr title  "packet bytes from higher layer, vector(packetBytes)"
vector 39  Topo.s1.eth[0].mac  rxPkOk:vector(packetBytes)  ETV
attr interpolationmode  none
attr source  rxPkOk
attr title  "packets received OK, vector(packetBytes)"
vector 40  Topo.s1.eth[0].mac  passedUpPk:vector(packetBytes)  ETV
attr interpolationmode  none
attr source  packetSentToUpper
attr title  "packets passed to higher layer, vector(packetBytes)"
vector 417  Topo.controller.eth[0].mac  txPk:vector(packetBytes)  ETV
attr interpolationmode  none
attr source  txPk
attr title  "packets transmitted, vector(packetBytes)"
vector 89  Topo.s2.eth[0].mac  rxPkOk:vector(packetBytes)  ETV
attr interpolationmode  none
attr source  rxPkOk
attr title  "packets received OK, vector(packetBytes)"
vector 90  Topo.s2.eth[0].mac  passedUpPk:vector(packetBytes)  ETV
attr interpolationmode  none
attr source  packetSentToUpper
attr title  "packets passed to higher layer, vector(packetBytes)"
vector 429  Topo.controller.eth[1].mac  txPk:vector(packetBytes)  ETV
attr interpolationmode  none
attr source  txPk
attr title  "packets transmitted, vector(packetBytes)"
vector 139  Topo.s3.eth[0].mac  rxPkOk:vector(packetBytes)  ETV
attr interpolationmode  none
attr source  rxPkOk
attr title  "packets received OK, vector(packetBytes)"
vector 140  Topo.s3.eth[0].mac  passedUpPk:vector(packetBytes)  ETV
attr interpolationmode  none
attr source  packetSentToUpper
attr title  "packets passed to higher layer, vector(packetBytes)"
vector 441  Topo.controller.eth[2].mac  txPk:vector(packetBytes)  ETV
attr interpolationmode  none
attr source  txPk
attr title  "packets transmitted, vector(packetBytes)"
vector 189  Topo.s4.eth[0].mac  rxPkOk:vector(packetBytes)  ETV
attr interpolationmode  none
attr source  rxPkOk
attr title  "packets received OK, vector(packetBytes)"
vector 190  Topo.s4.eth[0].mac  passedUpPk:vector(packetBytes)  ETV
attr interpolationmode  none
attr source  packetSentToUpper
attr title  "packets passed to higher layer, vector(packetBytes)"
vector 453  Topo.controller.eth[3].mac  txPk:vector(packetBytes)  ETV
attr interpolationmode  none
attr source  txPk
attr title  "packets transmitted, vector(packetBytes)"
vector 239  Topo.s5.eth[0].mac  rxPkOk:vector(packetBytes)  ETV
attr interpolationmode  none
attr source  rxPkOk
attr title  "packets received OK, vector(packetBytes)"
vector 240  Topo.s5.eth[0].mac  passedUpPk:vector(packetBytes)  ETV
attr interpolationmode  none
attr source  packetSentToUpper
attr title  "packets passed to higher layer, vector(packetBytes)"
vector 465  Topo.controller.eth[4].mac  txPk:vector(packetBytes)  ETV
attr interpolationmode  none
attr source  txPk
attr title  "packets transmitted, vector(packetBytes)"
vector 300  Topo.s6.eth[0].mac  rxPkOk:vector(packetBytes)  ETV
attr interpolationmode  none
attr source  rxPkOk
attr title  "packets received OK, vector(packetBytes)"
vector 301  Topo.s6.eth[0].mac  passedUpPk:vector(packetBytes)  ETV
attr interpolationmode  none
attr source  packetSentToUpper
attr title  "packets passed to higher layer, vector(packetBytes)"
vector 477  Topo.controller.eth[5].mac  txPk:vector(packetBytes)  ETV
attr interpolationmode  none
attr source  txPk
attr title  "packets transmitted, vector(packetBytes)"
vector 361  Topo.s7.eth[0].mac  rxPkOk:vector(packetBytes)  ETV
attr interpolationmode  none
attr source  rxPkOk
attr title  "packets received OK, vector(packetBytes)"
vector 362  Topo.s7.eth[0].mac  passedUpPk:vector(packetBytes)  ETV
attr interpolationmode  none
attr source  packetSentToUpper
attr title  "packets passed to higher layer, vector(packetBytes)"
vector 489  Topo.controller.eth[6].mac  txPk:vector(packetBytes)  ETV
attr interpolationmode  none
attr source  txPk
attr title  "packets transmitted, vector(packetBytes)"
vector 400  Topo.s8.eth[0].mac  rxPkOk:vector(packetBytes)  ETV
attr interpolationmode  none
attr source  rxPkOk
attr title  "packets received OK, vector(packetBytes)"
vector 401  Topo.s8.eth[0].mac  passedUpPk:vector(packetBytes)  ETV
attr interpolationmode  none
attr source  packetSentToUpper
attr title  "packets passed to higher layer, vector(packetBytes)"
vector 501  Topo.controller.eth[7].mac  txPk:vector(packetBytes)  ETV
attr interpolationmode  none
attr source  txPk
attr title  "packets transmitted, vector(packetBytes)"
vector 48  Topo.s1.eth[0].encap  decapPk:vector(packetBytes)  ETV
attr interpolationmode  none
attr source  decapPk
attr title  "packets decapsulated, vector(packetBytes)"
vector 98  Topo.s2.eth[0].encap  decapPk:vector(packetBytes)  ETV
attr interpolationmode  none
attr source  decapPk
attr title  "packets decapsulated, vector(packetBytes)"
vector 148  Topo.s3.eth[0].encap  decapPk:vector(packetBytes)  ETV
attr interpolationmode  none
attr source  decapPk
attr title  "packets decapsulated, vector(packetBytes)"
vector 198  Topo.s4.eth[0].encap  decapPk:vector(packetBytes)  ETV
attr interpolationmode  none
attr source  decapPk
attr title  "packets decapsulated, vector(packetBytes)"
vector 248  Topo.s5.eth[0].encap  decapPk:vector(packetBytes)  ETV
attr interpolationmode  none
attr source  decapPk
attr title  "packets decapsulated, vector(packetBytes)"
vector 309  Topo.s6.eth[0].encap  decapPk:vector(packetBytes)  ETV
attr interpolationmode  none
attr source  decapPk
attr title  "packets decapsulated, vector(packetBytes)"
vector 370  Topo.s7.eth[0].encap  decapPk:vector(packetBytes)  ETV
attr interpolationmode  none
attr source  decapPk
attr title  "packets decapsulated, vector(packetBytes)"
vector 409  Topo.s8.eth[0].encap  decapPk:vector(packetBytes)  ETV
attr interpolationmode  none
attr source  decapPk
attr title  "packets decapsulated, vector(packetBytes)"
vector 645  Topo.controller.tcp  "rcvd seq"  ETV
vector 646  Topo.controller.tcp  "rcvd ack"  ETV
vector 642  Topo.controller.tcp  "advertised window"  ETV
vector 640  Topo.controller.tcp  "send window"  ETV
vector 655  Topo.controller.tcp  tcpRcvQueueBytes  ETV
vector 641  Topo.controller.tcp  "receive window"  ETV
vector 644  Topo.controller.tcp  "sent ack"  ETV
vector 981  Topo.controller.tcp  "rcvd seq"  ETV
vector 982  Topo.controller.tcp  "rcvd ack"  ETV
vector 978  Topo.controller.tcp  "advertised window"  ETV
vector 976  Topo.controller.tcp  "send window"  ETV
vector 991  Topo.controller.tcp  tcpRcvQueueBytes  ETV
vector 977  Topo.controller.tcp  "receive window"  ETV
vector 980  Topo.controller.tcp  "sent ack"  ETV
vector 1005  Topo.controller.tcp  "rcvd seq"  ETV
vector 1006  Topo.controller.tcp  "rcvd ack"  ETV
vector 1002  Topo.controller.tcp  "advertised window"  ETV
vector 1000  Topo.controller.tcp  "send window"  ETV
vector 1015  Topo.controller.tcp  tcpRcvQueueBytes  ETV
vector 1001  Topo.controller.tcp  "receive window"  ETV
vector 1004  Topo.controller.tcp  "sent ack"  ETV
vector 1029  Topo.controller.tcp  "rcvd seq"  ETV
vector 1030  Topo.controller.tcp  "rcvd ack"  ETV
vector 1026  Topo.controller.tcp  "advertised window"  ETV
vector 1024  Topo.controller.tcp  "send window"  ETV
vector 1039  Topo.controller.tcp  tcpRcvQueueBytes  ETV
vector 1025  Topo.controller.tcp  "receive window"  ETV
vector 1028  Topo.controller.tcp  "sent ack"  ETV
vector 1053  Topo.controller.tcp  "rcvd seq"  ETV
vector 1054  Topo.controller.tcp  "rcvd ack"  ETV
vector 1050  Topo.controller.tcp  "advertised window"  ETV
vector 1048  Topo.controller.tcp  "send window"  ETV
vector 1063  Topo.controller.tcp  tcpRcvQueueBytes  ETV
vector 1049  Topo.controller.tcp  "receive window"  ETV
vector 1052  Topo.controller.tcp  "sent ack"  ETV
vector 1077  Topo.controller.tcp  "rcvd seq"  ETV
vector 1078  Topo.controller.tcp  "rcvd ack"  ETV
vector 1074  Topo.controller.tcp  "advertised window"  ETV
vector 1072  Topo.controller.tcp  "send window"  ETV
vector 1087  Topo.controller.tcp  tcpRcvQueueBytes  ETV
vector 1073  Topo.controller.tcp  "receive window"  ETV
vector 1076  Topo.controller.tcp  "sent ack"  ETV
vector 1101  Topo.controller.tcp  "rcvd seq"  ETV
vector 1102  Topo.controller.tcp  "rcvd ack"  ETV
vector 1098  Topo.controller.tcp  "advertised window"  ETV
vector 1096  Topo.controller.tcp  "send window"  ETV
vector 1111  Topo.controller.tcp  tcpRcvQueueBytes  ETV
vector 1097  Topo.controller.tcp  "receive window"  ETV
vector 1100  Topo.controller.tcp  "sent ack"  ETV
vector 1125  Topo.controller.tcp  "rcvd seq"  ETV
vector 1126  Topo.controller.tcp  "rcvd ack"  ETV
vector 1122  Topo.controller.tcp  "advertised window"  ETV
vector 1120  Topo.controller.tcp  "send window"  ETV
vector 1135  Topo.controller.tcp  tcpRcvQueueBytes  ETV
vector 1121  Topo.controller.tcp  "receive window"  ETV
vector 1124  Topo.controller.tcp  "sent ack"  ETV
vector 693  Topo.s1.tcp  "rcvd seq"  ETV
vector 694  Topo.s1.tcp  "rcvd ack"  ETV
vector 688  Topo.s1.tcp  "send window"  ETV
vector 717  Topo.s2.tcp  "rcvd seq"  ETV
vector 718  Topo.s2.tcp  "rcvd ack"  ETV
vector 712  Topo.s2.tcp  "send window"  ETV
vector 741  Topo.s3.tcp  "rcvd seq"  ETV
vector 742  Topo.s3.tcp  "rcvd ack"  ETV
vector 736  Topo.s3.tcp  "send window"  ETV
vector 765  Topo.s4.tcp  "rcvd seq"  ETV
vector 766  Topo.s4.tcp  "rcvd ack"  ETV
vector 760  Topo.s4.tcp  "send window"  ETV
vector 789  Topo.s5.tcp  "rcvd seq"  ETV
vector 790  Topo.s5.tcp  "rcvd ack"  ETV
vector 784  Topo.s5.tcp  "send window"  ETV
vector 813  Topo.s6.tcp  "rcvd seq"  ETV
vector 814  Topo.s6.tcp  "rcvd ack"  ETV
vector 808  Topo.s6.tcp  "send window"  ETV
vector 811  Topo.s6.tcp  "sent seq"  ETV
vector 815  Topo.s6.tcp  "unacked bytes"  ETV
vector 837  Topo.s7.tcp  "rcvd seq"  ETV
vector 838  Topo.s7.tcp  "rcvd ack"  ETV
vector 832  Topo.s7.tcp  "send window"  ETV
vector 835  Topo.s7.tcp  "sent seq"  ETV
vector 839  Topo.s7.tcp  "unacked bytes"  ETV
vector 861  Topo.s8.tcp  "rcvd seq"  ETV
vector 862  Topo.s8.tcp  "rcvd ack"  ETV
vector 856  Topo.s8.tcp  "send window"  ETV
vector 647  Topo.controller.tcp  "unacked bytes"  ETV
vector 983  Topo.controller.tcp  "unacked bytes"  ETV
vector 1007  Topo.controller.tcp  "unacked bytes"  ETV
vector 1031  Topo.controller.tcp  "unacked bytes"  ETV
vector 1055  Topo.controller.tcp  "unacked bytes"  ETV
vector 1127  Topo.controller.tcp  "unacked bytes"  ETV
vector 643  Topo.controller.tcp  "sent seq"  ETV
vector 979  Topo.controller.tcp  "sent seq"  ETV
vector 1003  Topo.controller.tcp  "sent seq"  ETV
vector 1027  Topo.controller.tcp  "sent seq"  ETV
vector 1051  Topo.controller.tcp  "sent seq"  ETV
vector 1123  Topo.controller.tcp  "sent seq"  ETV
vector 696  Topo.s1.tcp  "rcvd dupAcks"  ETV
vector 720  Topo.s2.tcp  "rcvd dupAcks"  ETV
vector 744  Topo.s3.tcp  "rcvd dupAcks"  ETV
vector 768  Topo.s4.tcp  "rcvd dupAcks"  ETV
vector 792  Topo.s5.tcp  "rcvd dupAcks"  ETV
vector 864  Topo.s8.tcp  "rcvd dupAcks"  ETV
vector 691  Topo.s1.tcp  "sent seq"  ETV
vector 695  Topo.s1.tcp  "unacked bytes"  ETV
vector 715  Topo.s2.tcp  "sent seq"  ETV
vector 719  Topo.s2.tcp  "unacked bytes"  ETV