version 2
run General-0-20170131-09:37:14-4835
attr configname General
attr datetime 20170131-09:37:14
attr experiment General
attr inifile omnetpp.ini
attr iterationvars ""
attr iterationvars2 $repetition=0
attr measurement ""
attr network Topo
attr processid 4835
attr repetition 0
attr replication #0
attr resultdir results
attr runnumber 0
attr seedset 0

vector 663  Topo.s1.tcp  tcpRcvQueueBytes  ETV
vector 650  Topo.s1.tcp  "advertised window"  ETV
vector 649  Topo.s1.tcp  "receive window"  ETV
vector 652  Topo.s1.tcp  "sent ack"  ETV
vector 687  Topo.s2.tcp  tcpRcvQueueBytes  ETV
vector 674  Topo.s2.tcp  "advertised window"  ETV
vector 673  Topo.s2.tcp  "receive window"  ETV
vector 676  Topo.s2.tcp  "sent ack"  ETV
vector 711  Topo.s3.tcp  tcpRcvQueueBytes  ETV
vector 698  Topo.s3.tcp  "advertised window"  ETV
vector 697  Topo.s3.tcp  "receive window"  ETV
vector 700  Topo.s3.tcp  "sent ack"  ETV
vector 735  Topo.s4.tcp  tcpRcvQueueBytes  ETV
vector 722  Topo.s4.tcp  "advertised window"  ETV
vector 721  Topo.s4.tcp  "receive window"  ETV
vector 724  Topo.s4.tcp  "sent ack"  ETV
vector 759  Topo.s5.tcp  tcpRcvQueueBytes  ETV
vector 746  Topo.s5.tcp  "advertised window"  ETV
vector 745  Topo.s5.tcp  "receive window"  ETV
vector 748  Topo.s5.tcp  "sent ack"  ETV
vector 783  Topo.s6.tcp  tcpRcvQueueBytes  ETV
vector 770  Topo.s6.tcp  "advertised window"  ETV
vector 769  Topo.s6.tcp  "receive window"  ETV
vector 772  Topo.s6.tcp  "sent ack"  ETV
vector 807  Topo.s7.tcp  tcpRcvQueueBytes  ETV
vector 794  Topo.s7.tcp  "advertised window"  ETV
vector 793  Topo.s7.tcp  "receive window"  ETV
vector 796  Topo.s7.tcp  "sent ack"  ETV
vector 831  Topo.s8.tcp  tcpRcvQueueBytes  ETV
vector 818  Topo.s8.tcp  "advertised window"  ETV
vector 817  Topo.s8.tcp  "receive window"  ETV
vector 820  Topo.s8.tcp  "sent ack"  ETV
vector 855  Topo.RTU1.tcp  tcpRcvQueueBytes  ETV
vector 842  Topo.RTU1.tcp  "advertised window"  ETV
vector 841  Topo.RTU1.tcp  "receive window"  ETV
vector 844  Topo.RTU1.tcp  "sent ack"  ETV
vector 879  Topo.RTU2.tcp  tcpRcvQueueBytes  ETV
vector 866  Topo.RTU2.tcp  "advertised window"  ETV
vector 865  Topo.RTU2.tcp  "receive window"  ETV
vector 868  Topo.RTU2.tcp  "sent ack"  ETV
vector 903  Topo.RTU3.tcp  tcpRcvQueueBytes  ETV
vector 890  Topo.RTU3.tcp  "advertised window"  ETV
vector 889  Topo.RTU3.tcp  "receive window"  ETV
vector 892  Topo.RTU3.tcp  "sent ack"  ETV
vector 927  Topo.RTU4.tcp  tcpRcvQueueBytes  ETV
vector 914  Topo.RTU4.tcp  "advertised window"  ETV
vector 913  Topo.RTU4.tcp  "receive window"  ETV
vector 916  Topo.RTU4.tcp  "sent ack"  ETV
vector 33  Topo.s1.networkLayer.arp  sentReq:vector  ETV
attr title  "ARP request sent, vector"
vector 80  Topo.s2.networkLayer.arp  sentReq:vector  ETV
attr title  "ARP request sent, vector"
vector 127  Topo.s3.networkLayer.arp  sentReq:vector  ETV
attr title  "ARP request sent, vector"
vector 174  Topo.s4.networkLayer.arp  sentReq:vector  ETV
attr title  "ARP request sent, vector"
vector 221  Topo.s5.networkLayer.arp  sentReq:vector  ETV
attr title  "ARP request sent, vector"
vector 279  Topo.s6.networkLayer.arp  sentReq:vector  ETV
attr title  "ARP request sent, vector"
vector 337  Topo.s7.networkLayer.arp  sentReq:vector  ETV
attr title  "ARP request sent, vector"
vector 373  Topo.s8.networkLayer.arp  sentReq:vector  ETV
attr title  "ARP request sent, vector"
vector 517  Topo.RTU1.networkLayer.arp  sentReq:vector  ETV
attr title  "ARP request sent, vector"
vector 539  Topo.RTU2.networkLayer.arp  sentReq:vector  ETV
attr title  "ARP request sent, vector"
vector 561  Topo.RTU3.networkLayer.arp  sentReq:vector  ETV
attr title  "ARP request sent, vector"
vector 583  Topo.RTU4.networkLayer.arp  sentReq:vector  ETV
attr title  "ARP request sent, vector"
vector 44  Topo.s1.eth[0].encap  encapPk:vector(packetBytes)  ETV
attr interpolationmode  none
attr source  encapPk
attr title  "packets encapsulated, vector(packetBytes)"
vector 91  Topo.s2.eth[0].encap  encapPk:vector(packetBytes)  ETV
attr interpolationmode  none
attr source  encapPk
attr title  "packets encapsulated, vector(packetBytes)"
vector 138  Topo.s3.eth[0].encap  encapPk:vector(packetBytes)  ETV
attr interpolationmode  none
attr source  encapPk
attr title  "packets encapsulated, vector(packetBytes)"
vector 185  Topo.s4.eth[0].encap  encapPk:vector(packetBytes)  ETV
attr interpolationmode  none
attr source  encapPk
attr title  "packets encapsulated, vector(packetBytes)"
vector 232  Topo.s5.eth[0].encap  encapPk:vector(packetBytes)  ETV
attr interpolationmode  none
attr source  encapPk
attr title  "packets encapsulated, vector(packetBytes)"
vector 290  Topo.s6.eth[0].encap  encapPk:vector(packetBytes)  ETV
attr interpolationmode  none
attr source  encapPk
attr title  "packets encapsulated, vector(packetBytes)"
vector 348  Topo.s7.eth[0].encap  encapPk:vector(packetBytes)  ETV
attr interpolationmode  none
attr source  encapPk
attr title  "packets encapsulated, vector(packetBytes)"
vector 384  Topo.s8.eth[0].encap  encapPk:vector(packetBytes)  ETV
attr interpolationmode  none
attr source  encapPk
attr title  "packets encapsulated, vector(packetBytes)"
vector 531  Topo.RTU1.eth[0].encap  encapPk:vector(packetBytes)  ETV
attr interpolationmode  none
attr source  encapPk
attr title  "packets encapsulated, vector(packetBytes)"
vector 553  Topo.RTU2.eth[0].encap  encapPk:vector(packetBytes)  ETV
attr interpolationmode  none
attr source  encapPk
attr title  "packets encapsulated, vector(packetBytes)"
vector 575  Topo.RTU3.eth[0].encap  encapPk:vector(packetBytes)  ETV
attr interpolationmode  none
attr source  encapPk
attr title  "packets encapsulated, vector(packetBytes)"
vector 597  Topo.RTU4.eth[0].encap  encapPk:vector(packetBytes)  ETV
attr interpolationmode  none
attr source  encapPk
attr title  "packets encapsulated, vector(packetBytes)"
vector 40  Topo.s1.eth[0].mac  rxPkFromHL:vector(packetBytes)  ETV
attr interpolationmode  none
attr source  rxPkFromHL
attr title  "packet bytes from higher layer, vector(packetBytes)"
vector 87  Topo.s2.eth[0].mac  rxPkFromHL:vector(packetBytes)  ETV
attr interpolationmode  none
attr source  rxPkFromHL
attr title  "packet bytes from higher layer, vector(packetBytes)"
vector 134  Topo.s3.eth[0].mac  rxPkFromHL:vector(packetBytes)  ETV
attr interpolationmode  none
attr source  rxPkFromHL
attr title  "packet bytes from higher layer, vector(packetBytes)"
vector 181  Topo.s4.eth[0].mac  rxPkFromHL:vector(packetBytes)  ETV
attr interpolationmode  none
attr source  rxPkFromHL
attr title  "packet bytes from higher layer, vector(packetBytes)"
vector 228  Topo.s5.eth[0].mac  rxPkFromHL:vector(packetBytes)  ETV
attr interpolationmode  none
attr source  rxPkFromHL
attr title  "packet bytes from higher layer, vector(packetBytes)"
vector 286  Topo.s6.eth[0].mac  rxPkFromHL:vector(packetBytes)  ETV
attr interpolationmode  none
attr source  rxPkFromHL
attr title  "packet bytes from higher layer, vector(packetBytes)"
vector 344  Topo.s7.eth[0].mac  rxPkFromHL:vector(packetBytes)  ETV
attr interpolationmode  none
attr source  rxPkFromHL
attr title  "packet bytes from higher layer, vector(packetBytes)"
vector 380  Topo.s8.eth[0].mac  rxPkFromHL:vector(packetBytes)  ETV
attr interpolationmode  none
attr source  rxPkFromHL
attr title  "packet bytes from higher layer, vector(packetBytes)"
vector 527  Topo.RTU1.eth[0].mac  rxPkFromHL:vector(packetBytes)  ETV
attr interpolationmode  none
attr source  rxPkFromHL
attr title  "packet bytes from higher layer, vector(packetBytes)"
vector 549  Topo.RTU2.eth[0].mac  rxPkFromHL:vector(packetBytes)  ETV
attr interpolationmode  none
attr source  rxPkFromHL
attr title  "packet bytes from higher layer, vector(packetBytes)"
vector 571  Topo.RTU3.eth[0].mac  rxPkFromHL:vector(packetBytes)  ETV
attr interpolationmode  none
attr source  rxPkFromHL
attr title  "packet bytes from higher layer, vector(packetBytes)"
vector 593  Topo.RTU4.eth[0].mac  rxPkFromHL:vector(packetBytes)  ETV
attr interpolationmode  none
attr source  rxPkFromHL
attr title  "packet bytes from higher layer, vector(packetBytes)"
vector 35  Topo.s1.eth[0].mac  txPk:vector(packetBytes)  ETV
attr interpolationmode  none
attr source  txPk
attr title  "packets transmitted, vector(packetBytes)"
vector 82  Topo.s2.eth[0].mac  txPk:vector(packetBytes)  ETV
attr interpolationmode  none
attr source  txPk
attr title  "packets transmitted, vector(packetBytes)"
vector 129  Topo.s3.eth[0].mac  txPk:vector(packetBytes)  ETV
attr interpolationmode  none
attr source  txPk
attr title  "packets transmitted, vector(packetBytes)"
vector 176  Topo.s4.eth[0].mac  txPk:vector(packetBytes)  ETV
attr interpolationmode  none
attr source  txPk
attr title  "packets transmitted, vector(packetBytes)"
vector 223  Topo.s5.eth[0].mac  txPk:vector(packetBytes)  ETV
attr interpolationmode  none
attr source  txPk
attr title  "packets transmitted, vector(packetBytes)"
vector 281  Topo.s6.eth[0].mac  txPk:vector(packetBytes)  ETV
attr interpolationmode  none
attr source  txPk
attr title  "packets transmitted, vector(packetBytes)"
vector 339  Topo.s7.eth[0].mac  txPk:vector(packetBytes)  ETV
attr interpolationmode  none
attr source  txPk
attr title  "packets transmitted, vector(packetBytes)"
vector 375  Topo.s8.eth[0].mac  txPk:vector(packetBytes)  ETV
attr interpolationmode  none
attr source  txPk
attr title  "packets transmitted, vector(packetBytes)"
vector 522  Topo.RTU1.eth[0].mac  txPk:vector(packetBytes)  ETV
attr interpolationmode  none
attr source  txPk
attr title  "packets transmitted, vector(packetBytes)"
vector 544  Topo.RTU2.eth[0].mac  txPk:vector(packetBytes)  ETV
attr interpolationmode  none
attr source  txPk
attr title  "packets transmitted, vector(packetBytes)"
vector 566  Topo.RTU3.eth[0].mac  txPk:vector(packetBytes)  ETV
attr interpolationmode  none
attr source  txPk
attr title  "packets transmitted, vector(packetBytes)"
vector 588  Topo.RTU4.eth[0].mac  txPk:vector(packetBytes)  ETV
attr interpolationmode  none
attr source  txPk
attr title  "packets transmitted, vector(packetBytes)"
vector 393  Topo.controller.eth[0].mac  rxPkOk:vector(packetBytes)  ETV
attr interpolationmode  none
attr source  rxPkOk
attr title  "packets received OK, vector(packetBytes)"
vector 394  Topo.controller.eth[0].mac  passedUpPk:vector(packetBytes)  ETV
attr interpolationmode  none
attr source  packetSentToUpper
attr title  "packets passed to higher layer, vector(packetBytes)"
vector 405  Topo.controller.eth[1].mac  rxPkOk:vector(packetBytes)  ETV
attr interpolationmode  none
attr source  rxPkOk
attr title  "packets received OK, vector(packetBytes)"
vector 406  Topo.controller.eth[1].mac  passedUpPk:vector(packetBytes)  ETV
attr interpolationmode  none
attr source  packetSentToUpper
attr title  "packets passed to higher layer, vector(packetBytes)"
vector 417  Topo.controller.eth[2].mac  rxPkOk:vector(packetBytes)  ETV
attr interpolationmode  none
attr source  rxPkOk
attr title  "packets received OK, vector(packetBytes)"
vector 418  Topo.controller.eth[2].mac  passedUpPk:vector(packetBytes)  ETV
attr interpolationmode  none
attr source  packetSentToUpper
attr title  "packets passed to higher layer, vector(packetBytes)"
vector 429  Topo.controller.eth[3].mac  rxPkOk:vector(packetBytes)  ETV
attr interpolationmode  none
attr source  rxPkOk
attr title  "packets received OK, vector(packetBytes)"
vector 430  Topo.controller.eth[3].mac  passedUpPk:vector(packetBytes)  ETV
attr interpolationmode  none
attr source  packetSentToUpper
attr title  "packets passed to higher layer, vector(packetBytes)"
vector 441  Topo.controller.eth[4].mac  rxPkOk:vector(packetBytes)  ETV
attr interpolationmode  none
attr source  rxPkOk
attr title  "packets received OK, vector(packetBytes)"
vector 442  Topo.controller.eth[4].mac  passedUpPk:vector(packetBytes)  ETV
attr interpolationmode  none
attr source  packetSentToUpper
attr title  "packets passed to higher layer, vector(packetBytes)"
vector 453  Topo.controller.eth[5].mac  rxPkOk:vector(packetBytes)  ETV
attr interpolationmode  none
attr source  rxPkOk
attr title  "packets received OK, vector(packetBytes)"
vector 454  Topo.controller.eth[5].mac  passedUpPk:vector(packetBytes)  ETV
attr interpolationmode  none
attr source  packetSentToUpper
attr title  "packets passed to higher layer, vector(packetBytes)"
vector 465  Topo.controller.eth[6].mac  rxPkOk:vector(packetBytes)  ETV
attr interpolationmode  none
attr source  rxPkOk
attr title  "packets received OK, vector(packetBytes)"
vector 466  Topo.controller.eth[6].mac  passedUpPk:vector(packetBytes)  ETV
attr interpolationmode  none
attr source  packetSentToUpper
attr title  "packets passed to higher layer, vector(packetBytes)"
vector 477  Topo.controller.eth[7].mac  rxPkOk:vector(packetBytes)  ETV
attr interpolationmode  none
attr source  rxPkOk
attr title  "packets received OK, vector(packetBytes)"
vector 478  Topo.controller.eth[7].mac  passedUpPk:vector(packetBytes)  ETV
attr interpolationmode  none
attr source  packetSentToUpper
attr title  "packets passed to higher layer, vector(packetBytes)"
vector 236  Topo.s6.etherMAC[0]  rxPkOk:vector(packetBytes)  ETV
attr interpolationmode  none
attr source  rxPkOk
attr title  "packets received OK, vector(packetBytes)"
vector 237  Topo.s6.etherMAC[0]  passedUpPk:vector(packetBytes)  ETV
attr interpolationmode  none
attr source  packetSentToUpper
attr title  "packets passed to higher layer, vector(packetBytes)"
vector 247  Topo.s6.etherMAC[1]  rxPkOk:vector(packetBytes)  ETV
attr interpolationmode  none
attr source  rxPkOk
attr title  "packets received OK, vector(packetBytes)"
vector 248  Topo.s6.etherMAC[1]  passedUpPk:vector(packetBytes)  ETV
attr interpolationmode  none
attr source  packetSentToUpper
attr title  "packets passed to higher layer, vector(packetBytes)"
vector 294  Topo.s7.etherMAC[0]  rxPkOk:vector(packetBytes)  ETV
attr interpolationmode  none
attr source  rxPkOk
attr title  "packets received OK, vector(packetBytes)"
vector 295  Topo.s7.etherMAC[0]  passedUpPk:vector(packetBytes)  ETV
attr interpolationmode  none
attr source  packetSentToUpper
attr title  "packets passed to higher layer, vector(packetBytes)"
vector 305  Topo.s7.etherMAC[1]  rxPkOk:vector(packetBytes)  ETV
attr interpolationmode  none
attr source  rxPkOk
attr title  "packets received OK, vector(packetBytes)"
vector 306  Topo.s7.etherMAC[1]  passedUpPk:vector(packetBytes)  ETV
attr interpolationmode  none
attr source  packetSentToUpper
attr title  "packets passed to higher layer, vector(packetBytes)"
vector 402  Topo.controller.eth[0].encap  decapPk:vector(packetBytes)  ETV
attr interpolationmode  none
attr source  decapPk
attr title  "packets decapsulated, vector(packetBytes)"
vector 414  Topo.controller.eth[1].encap  decapPk:vector(packetBytes)  ETV
attr interpolationmode  none
attr source  decapPk
attr title  "packets decapsulated, vector(packetBytes)"
vector 426  Topo.controller.eth[2].encap  decapPk:vector(packetBytes)  ETV
attr interpolationmode  none
attr source  decapPk
attr title  "packets decapsulated, vector(packetBytes)"
vector 438  Topo.controller.eth[3].encap  decapPk:vector(packetBytes)  ETV
attr interpolationmode  none
attr source  decapPk
attr title  "packets decapsulated, vector(packetBytes)"
vector 450  Topo.controller.eth[4].encap  decapPk:vector(packetBytes)  ETV
attr interpolationmode  none
attr source  decapPk
attr title  "packets decapsulated, vector(packetBytes)"
vector 462  Topo.controller.eth[5].encap  decapPk:vector(packetBytes)  ETV
attr interpolationmode  none
attr source  decapPk
attr title  "packets decapsulated, vector(packetBytes)"
vector 474  Topo.controller.eth[6].encap  decapPk:vector(packetBytes)  ETV
attr interpolationmode  none
attr source  decapPk
attr title  "packets decapsulated, vector(packetBytes)"
vector 486  Topo.controller.eth[7].encap  decapPk:vector(packetBytes)  ETV
attr interpolationmode  none
attr source  decapPk
attr title  "packets decapsulated, vector(packetBytes)"
vector 388  Topo.controller.networkLayer.arp  sentReply:vector  ETV
attr title  "ARP replies sent, vector"
vector 401  Topo.controller.eth[0].encap  encapPk:vector(packetBytes)  ETV
attr interpolationmode  none
attr source  encapPk
attr title  "packets encapsulated, vector(packetBytes)"
vector 413  Topo.controller.eth[1].encap  encapPk:vector(packetBytes)  ETV
attr interpolationmode  none
attr source  encapPk
attr title  "packets encapsulated, vector(packetBytes)"
vector 425  Topo.controller.eth[2].encap  encapPk:vector(packetBytes)  ETV
attr interpolationmode  none
attr source  encapPk
attr title  "packets encapsulated, vector(packetBytes)"
vector 437  Topo.controller.eth[3].encap  encapPk:vector(packetBytes)  ETV
attr interpolationmode  none
attr source  encapPk
attr title  "packets encapsulated, vector(packetBytes)"
vector 449  Topo.controller.eth[4].encap  encapPk:vector(packetBytes)  ETV
attr interpolationmode  none
attr source  encapPk
attr title  "packets encapsulated, vector(packetBytes)"
vector 461  Topo.controller.eth[5].encap  encapPk:vector(packetBytes)  ETV
attr interpolationmode  none
attr source  encapPk
attr title  "packets encapsulated, vector(packetBytes)"
vector 473  Topo.controller.eth[6].encap  encapPk:vector(packetBytes)  ETV
attr interpolationmode  none
attr source  encapPk
attr title  "packets encapsulated, vector(packetBytes)"
vector 485  Topo.controller.eth[7].encap  encapPk:vector(packetBytes)  ETV
attr interpolationmode  none
attr source  encapPk
attr title  "packets encapsulated, vector(packetBytes)"
vector 397  Topo.controller.eth[0].mac  rxPkFromHL:vector(packetBytes)  ETV
attr interpolationmode  none
attr source  rxPkFromHL
attr title  "packet bytes from higher layer, vector(packetBytes)"
vector 409  Topo.controller.eth[1].mac  rxPkFromHL:vector(packetBytes)  ETV
attr interpolationmode  none
attr source  rxPkFromHL
attr title  "packet bytes from higher layer, vector(packetBytes)"
vector 421  Topo.controller.eth[2].mac  rxPkFromHL:vector(packetBytes)  ETV
attr interpolationmode  none
attr source  rxPkFromHL
attr title  "packet bytes from higher layer, vector(packetBytes)"
vector 433  Topo.controller.eth[3].mac  rxPkFromHL:vector(packetBytes)  ETV
attr interpolationmode  none
attr source  rxPkFromHL
attr title  "packet bytes from higher layer, vector(packetBytes)"
vector 445  Topo.controller.eth[4].mac  rxPkFromHL:vector(packetBytes)  ETV
attr interpolationmode  none
attr source  rxPkFromHL
attr title  "packet bytes from higher layer, vector(packetBytes)"
vector 457  Topo.controller.eth[5].mac  rxPkFromHL:vector(packetBytes)  ETV
attr interpolationmode  none
attr source  rxPkFromHL
attr title  "packet bytes from higher layer, vector(packetBytes)"
vector 469  Topo.controller.eth[6].mac  rxPkFromHL:vector(packetBytes)  ETV
attr interpolationmode  none
attr source  rxPkFromHL
attr title  "packet bytes from higher layer, vector(packetBytes)"
vector 481  Topo.controller.eth[7].mac  rxPkFromHL:vector(packetBytes)  ETV
attr interpolationmode  none
attr source  rxPkFromHL
attr title  "packet bytes from higher layer, vector(packetBytes)"
vector 392  Topo.controller.eth[0].mac  txPk:vector(packetBytes)  ETV
attr interpolationmode  none
attr source  txPk
attr title  "packets transmitted, vector(packetBytes)"
vector 404  Topo.controller.eth[1].mac  txPk:vector(packetBytes)  ETV
attr interpolationmode  none
attr source  txPk
attr title  "packets transmitted, vector(packetBytes)"
vector 416  Topo.controller.eth[2].mac  txPk:vector(packetBytes)  ETV
attr interpolationmode  none
attr source  txPk
attr title  "packets transmitted, vector(packetBytes)"
vector 428  Topo.controller.eth[3].mac  txPk:vector(packetBytes)  ETV
attr interpolationmode  none
attr source  txPk
attr title  "packets transmitted, vector(packetBytes)"
vector 440  Topo.controller.eth[4].mac  txPk:vector(packetBytes)  ETV
attr interpolationmode  none
attr source  txPk
attr title  "packets transmitted, vector(packetBytes)"
vector 452  Topo.controller.eth[5].mac  txPk:vector(packetBytes)  ETV
attr interpolationmode  none
attr source  txPk
attr title  "packets transmitted, vector(packetBytes)"
vector 464  Topo.controller.eth[6].mac  txPk:vector(packetBytes)  ETV
attr interpolationmode  none
attr source  txPk
attr title  "packets transmitted, vector(packetBytes)"
vector 476  Topo.controller.eth[7].mac  txPk:vector(packetBytes)  ETV
attr interpolationmode  none
attr source  txPk
attr title  "packets transmitted, vector(packetBytes)"
vector 36  Topo.s1.eth[0].mac  rxPkOk:vector(packetBytes)  ETV
attr interpolationmode  none
attr source  rxPkOk
attr title  "packets received OK, vector(packetBytes)"
vector 37  Topo.s1.eth[0].mac  passedUpPk:vector(packetBytes)  ETV
attr interpolationmode  none
attr source  packetSentToUpper
attr title  "packets passed to higher layer, vector(packetBytes)"
vector 83  Topo.s2.eth[0].mac  rxPkOk:vector(packetBytes)  ETV
attr interpolationmode  none
attr source  rxPkOk
attr title  "packets received OK, vector(packetBytes)"
vector 84  Topo.s2.eth[0].mac  passedUpPk:vector(packetBytes)  ETV
attr interpolationmode  none
attr source  packetSentToUpper
attr title  "packets passed to higher layer, vector(packetBytes)"
vector 130  Topo.s3.eth[0].mac  rxPkOk:vector(packetBytes)  ETV
attr interpolationmode  none
attr source  rxPkOk
attr title  "packets received OK, vector(packetBytes)"
vector 131  Topo.s3.eth[0].mac  passedUpPk:vector(packetBytes)  ETV
attr interpolationmode  none
attr source  packetSentToUpper
attr title  "packets passed to higher layer, vector(packetBytes)"
vector 177  Topo.s4.eth[0].mac  rxPkOk:vector(packetBytes)  ETV
attr interpolationmode  none
attr source  rxPkOk
attr title  "packets received OK, vector(packetBytes)"
vector 178  Topo.s4.eth[0].mac  passedUpPk:vector(packetBytes)  ETV
attr interpolationmode  none
attr source  packetSentToUpper
attr title  "packets passed to higher layer, vector(packetBytes)"
vector 224  Topo.s5.eth[0].mac  rxPkOk:vector(packetBytes)  ETV
attr interpolationmode  none
attr source  rxPkOk
attr title  "packets received OK, vector(packetBytes)"
vector 225  Topo.s5.eth[0].mac  passedUpPk:vector(packetBytes)  ETV
attr interpolationmode  none
attr source  packetSentToUpper
attr title  "packets passed to higher layer, vector(packetBytes)"
vector 282  Topo.s6.eth[0].mac  rxPkOk:vector(packetBytes)  ETV
attr interpolationmode  none
attr source  rxPkOk
attr title  "packets received OK, vector(packetBytes)"
vector 283  Topo.s6.eth[0].mac  passedUpPk:vector(packetBytes)  ETV
attr interpolationmode  none
attr source  packetSentToUpper
attr title  "packets passed to higher layer, vector(packetBytes)"
vector 340  Topo.s7.eth[0].mac  rxPkOk:vector(packetBytes)  ETV
attr interpolationmode  none
attr source  rxPkOk
attr title  "packets received OK, vector(packetBytes)"
vector 341  Topo.s7.eth[0].mac  passedUpPk:vector(packetBytes)  ETV
attr interpolationmode  none
attr source  packetSentToUpper
attr title  "packets passed to higher layer, vector(packetBytes)"
vector 376  Topo.s8.eth[0].mac  rxPkOk:vector(packetBytes)  ETV
attr interpolationmode  none
attr source  rxPkOk
attr title  "packets received OK, vector(packetBytes)"
vector 377  Topo.s8.eth[0].mac  passedUpPk:vector(packetBytes)  ETV
attr interpolationmode  none
attr source  packetSentToUpper
attr title  "packets passed to higher layer, vector(packetBytes)"
vector 45  Topo.s1.eth[0].encap  decapPk:vector(packetBytes)  ETV
attr interpolationmode  none
attr source  decapPk
attr title  "packets decapsulated, vector(packetBytes)"
vector 92  Topo.s2.eth[0].encap  decapPk:vector(packetBytes)  ETV
attr interpolationmode  none
attr source  decapPk
attr title  "packets decapsulated, vector(packetBytes)"
vector 139  Topo.s3.eth[0].encap  decapPk:vector(packetBytes)  ETV
attr interpolationmode  none
attr source  decapPk
attr title  "packets decapsulated, vector(packetBytes)"
vector 186  Topo.s4.eth[0].encap  decapPk:vector(packetBytes)  ETV
attr interpolationmode  none
attr source  decapPk
attr title  "packets decapsulated, vector(packetBytes)"
vector 233  Topo.s5.eth[0].encap  decapPk:vector(packetBytes)  ETV
attr interpolationmode  none
attr source  decapPk
attr title  "packets decapsulated, vector(packetBytes)"
vector 291  Topo.s6.eth[0].encap  decapPk:vector(packetBytes)  ETV
attr interpolationmode  none
attr source  decapPk
attr title  "packets decapsulated, vector(packetBytes)"
vector 349  Topo.s7.eth[0].encap  decapPk:vector(packetBytes)  ETV
attr interpolationmode  none
attr source  decapPk
attr title  "packets decapsulated, vector(packetBytes)"
vector 385  Topo.s8.eth[0].encap  decapPk:vector(packetBytes)  ETV
attr interpolationmode  none
attr source  decapPk
attr title  "packets decapsulated, vector(packetBytes)"
vector 605  Topo.controller.tcp  "rcvd seq"  ETV
vector 606  Topo.controller.tcp  "rcvd ack"  ETV
vector 602  Topo.controller.tcp  "advertised window"  ETV
vector 600  Topo.controller.tcp  "send window"  ETV
vector 615  Topo.controller.tcp  tcpRcvQueueBytes  ETV
vector 601  Topo.controller.tcp  "receive window"  ETV
vector 604  Topo.controller.tcp  "sent ack"  ETV
vector 941  Topo.controller.tcp  "rcvd seq"  ETV
vector 942  Topo.controller.tcp  "rcvd ack"  ETV
vector 938  Topo.controller.tcp  "advertised window"  ETV
vector 936  Topo.controller.tcp  "send window"  ETV
vector 951  Topo.controller.tcp  tcpRcvQueueBytes  ETV
vector 937  Topo.controller.tcp  "receive window"  ETV
vector 940  Topo.controller.tcp  "sent ack"  ETV
vector 965  Topo.controller.tcp  "rcvd seq"  ETV
vector 966  Topo.controller.tcp  "rcvd ack"  ETV
vector 962  Topo.controller.tcp  "advertised window"  ETV
vector 960  Topo.controller.tcp  "send window"  ETV
vector 975  Topo.controller.tcp  tcpRcvQueueBytes  ETV
vector 961  Topo.controller.tcp  "receive window"  ETV
vector 964  Topo.controller.tcp  "sent ack"  ETV
vector 989  Topo.controller.tcp  "rcvd seq"  ETV
vector 990  Topo.controller.tcp  "rcvd ack"  ETV
vector 986  Topo.controller.tcp  "advertised window"  ETV
vector 984  Topo.controller.tcp  "send window"  ETV
vector 999  Topo.controller.tcp  tcpRcvQueueBytes  ETV
vector 985  Topo.controller.tcp  "receive window"  ETV
vector 988  Topo.controller.tcp  "sent ack"  ETV
vector 1013  Topo.controller.tcp  "rcvd seq"  ETV
vector 1014  Topo.controller.tcp  "rcvd ack"  ETV
vector 1010  Topo.controller.tcp  "advertised window"  ETV
vector 1008  Topo.controller.tcp  "send window"  ETV
vector 1023  Topo.controller.tcp  tcpRcvQueueBytes  ETV
vector 1009  Topo.controller.tcp  "receive window"  ETV
vector 1012  Topo.controller.tcp  "sent ack"  ETV
vector 1037  Topo.controller.tcp  "rcvd seq"  ETV
vector 1038  Topo.controller.tcp  "rcvd ack"  ETV
vector 1034  Topo.controller.tcp  "advertised window"  ETV
vector 1032  Topo.controller.tcp  "send window"  ETV
vector 1047  Topo.controller.tcp  tcpRcvQueueBytes  ETV
vector 1033  Topo.controller.tcp  "receive window"  ETV
vector 1036  Topo.controller.tcp  "sent ack"  ETV
vector 1061  Topo.controller.tcp  "rcvd seq"  ETV
vector 1062  Topo.controller.tcp  "rcvd ack"  ETV
vector 1058  Topo.controller.tcp  "advertised window"  ETV
vector 1056  Topo.controller.tcp  "send window"  ETV
vector 1071  Topo.controller.tcp  tcpRcvQueueBytes  ETV
vector 1057  Topo.controller.tcp  "receive window"  ETV
vector 1060  Topo.controller.tcp  "sent ack"  ETV
vector 1085  Topo.controller.tcp  "rcvd seq"  ETV
vector 1086  Topo.controller.tcp  "rcvd ack"  ETV
vector 1082  Topo.controller.tcp  "advertised window"  ETV
vector 1080  Topo.controller.tcp  "send window"  ETV
vector 1095  Topo.controller.tcp  tcpRcvQueueBytes  ETV
vector 1081  Topo.controller.tcp  "receive window"  ETV
vector 1084  Topo.controller.tcp  "sent ack"  ETV
vector 653  Topo.s1.tcp  "rcvd seq"  ETV
vector 654  Topo.s1.tcp  "rcvd ack"  ETV
vector 648  Topo.s1.tcp  "send window"  ETV
vector 677  Topo.s2.tcp  "rcvd seq"  ETV
vector 678  Topo.s2.tcp  "rcvd ack"  ETV
vector 672  Topo.s2.tcp  "send window"  ETV
vector 701  Topo.s3.tcp  "rcvd seq"  ETV
vector 702  Topo.s3.tcp  "rcvd ack"  ETV
vector 696  Topo.s3.tcp  "send window"  ETV
vector 725  Topo.s4.tcp  "rcvd seq"  ETV
vector 726  Topo.s4.tcp  "rcvd ack"  ETV
vector 720  Topo.s4.tcp  "send window"  ETV
vector 749  Topo.s5.tcp  "rcvd seq"  ETV
vector 750  Topo.s5.tcp  "rcvd ack"  ETV
vector 744  Topo.s5.tcp  "send window"  ETV
vector 773  Topo.s6.tcp  "rcvd seq"  ETV
vector 774  Topo.s6.tcp  "rcvd ack"  ETV
vector 768  Topo.s6.tcp  "send window"  ETV
vector 771  Topo.s6.tcp  "sent seq"  ETV
vector 775  Topo.s6.tcp  "unacked bytes"  ETV
vector 797  Topo.s7.tcp  "rcvd seq"  ETV
vector 798  Topo.s7.tcp  "rcvd ack"  ETV
vector 792  Topo.s7.tcp  "send window"  ETV
vector 795  Topo.s7.tcp  "sent seq"  ETV
vector 799  Topo.s7.tcp  "unacked bytes"  ETV
vector 821  Topo.s8.tcp  "rcvd seq"  ETV
vector 822  Topo.s8.tcp  "rcvd ack"  ETV
vector 816  Topo.s8.tcp  "send window"  ETV
vector 607  Topo.controller.tcp  "unacked bytes"  ETV
vector 943  Topo.controller.tcp  "unacked bytes"  ETV
vector 967  Topo.controller.tcp  "unacked bytes"  ETV
vector 991  Topo.controller.tcp  "unacked bytes"  ETV
vector 1015  Topo.controller.tcp  "unacked bytes"  ETV
vector 1087  Topo.controller.tcp  "unacked bytes"  ETV
vector 603  Topo.controller.tcp  "sent seq"  ETV
vector 939  Topo.controller.tcp  "sent seq"  ETV
vector 963  Topo.controller.tcp  "sent seq"  ETV
vector 987  Topo.controller.tcp  "sent seq"  ETV
vector 1011  Topo.controller.tcp  "sent seq"  ETV
vector 1083  Topo.controller.tcp  "sent seq"  ETV
vector 1039  Topo.controller.tcp  "unacked bytes"  ETV
vector 1049  Topo.controller.tcp  cwnd  ETV
vector 1040  Topo.controller.tcp  "rcvd dupAcks"  ETV
vector 1063  Topo.controller.tcp  "unacked bytes"  ETV
vector 1073  Topo.controller.tcp  cwnd  ETV
vector 1064  Topo.controller.tcp  "rcvd dupAcks"  ETV
vector 1035  Topo.controller.tcp  "sent seq"  ETV
vector 1059  Topo.controller.tcp  "sent seq"  ETV
vector 656  Topo.s1.tcp  "rcvd dupAcks"  ETV