file 317836 1485443922                                          
version 2
run General-0-20170126-16:18:37-24075
attr configname General
attr datetime 20170126-16:18:37
attr experiment General
attr inifile omnetpp.ini
attr iterationvars ""
attr iterationvars2 $repetition=0
attr measurement ""
attr network Topo
attr processid 24075
attr repetition 0
attr replication #0
attr resultdir results
attr runnumber 0
attr seedset 0

vector 659  Topo.s1.tcp  tcpRcvQueueBytes  ETV
vector 646  Topo.s1.tcp  "advertised window"  ETV
vector 645  Topo.s1.tcp  "receive window"  ETV
vector 648  Topo.s1.tcp  "sent ack"  ETV
vector 683  Topo.s2.tcp  tcpRcvQueueBytes  ETV
vector 670  Topo.s2.tcp  "advertised window"  ETV
vector 669  Topo.s2.tcp  "receive window"  ETV
vector 672  Topo.s2.tcp  "sent ack"  ETV
vector 707  Topo.s3.tcp  tcpRcvQueueBytes  ETV
vector 694  Topo.s3.tcp  "advertised window"  ETV
vector 693  Topo.s3.tcp  "receive window"  ETV
vector 696  Topo.s3.tcp  "sent ack"  ETV
vector 731  Topo.s4.tcp  tcpRcvQueueBytes  ETV
vector 718  Topo.s4.tcp  "advertised window"  ETV
vector 717  Topo.s4.tcp  "receive window"  ETV
vector 720  Topo.s4.tcp  "sent ack"  ETV
vector 755  Topo.s5.tcp  tcpRcvQueueBytes  ETV
vector 742  Topo.s5.tcp  "advertised window"  ETV
vector 741  Topo.s5.tcp  "receive window"  ETV
vector 744  Topo.s5.tcp  "sent ack"  ETV
vector 779  Topo.s6.tcp  tcpRcvQueueBytes  ETV
vector 766  Topo.s6.tcp  "advertised window"  ETV
vector 765  Topo.s6.tcp  "receive window"  ETV
vector 768  Topo.s6.tcp  "sent ack"  ETV
vector 803  Topo.s7.tcp  tcpRcvQueueBytes  ETV
vector 790  Topo.s7.tcp  "advertised window"  ETV
vector 789  Topo.s7.tcp  "receive window"  ETV
vector 792  Topo.s7.tcp  "sent ack"  ETV
vector 827  Topo.s8.tcp  tcpRcvQueueBytes  ETV
vector 814  Topo.s8.tcp  "advertised window"  ETV
vector 813  Topo.s8.tcp  "receive window"  ETV
vector 816  Topo.s8.tcp  "sent ack"  ETV
vector 851  Topo.RTU1.tcp  tcpRcvQueueBytes  ETV
vector 838  Topo.RTU1.tcp  "advertised window"  ETV
vector 837  Topo.RTU1.tcp  "receive window"  ETV
vector 840  Topo.RTU1.tcp  "sent ack"  ETV
vector 875  Topo.RTU2.tcp  tcpRcvQueueBytes  ETV
vector 862  Topo.RTU2.tcp  "advertised window"  ETV
vector 861  Topo.RTU2.tcp  "receive window"  ETV
vector 864  Topo.RTU2.tcp  "sent ack"  ETV
vector 899  Topo.RTU3.tcp  tcpRcvQueueBytes  ETV
vector 886  Topo.RTU3.tcp  "advertised window"  ETV
vector 885  Topo.RTU3.tcp  "receive window"  ETV
vector 888  Topo.RTU3.tcp  "sent ack"  ETV
vector 923  Topo.RTU4.tcp  tcpRcvQueueBytes  ETV
vector 910  Topo.RTU4.tcp  "advertised window"  ETV
vector 909  Topo.RTU4.tcp  "receive window"  ETV
vector 912  Topo.RTU4.tcp  "sent ack"  ETV
vector 33  Topo.s1.networkLayer.arp  sentReq:vector  ETV
attr title  "ARP request sent, vector"
vector 80  Topo.s2.networkLayer.arp  sentReq:vector  ETV
attr title  "ARP request sent, vector"
vector 127  Topo.s3.networkLayer.arp  sentReq:vector  ETV
attr title  "ARP request sent, vector"
vector 174  Topo.s4.networkLayer.arp  sentReq:vector  ETV
attr title  "ARP request sent, vector"
vector 221  Topo.s5.networkLayer.arp  sentReq:vector  ETV
attr title  "ARP request sent, vector"
vector 279  Topo.s6.networkLayer.arp  sentReq:vector  ETV
attr title  "ARP request sent, vector"
vector 337  Topo.s7.networkLayer.arp  sentReq:vector  ETV
attr title  "ARP request sent, vector"
vector 373  Topo.s8.networkLayer.arp  sentReq:vector  ETV
attr title  "ARP request sent, vector"
vector 516  Topo.RTU1.networkLayer.arp  sentReq:vector  ETV
attr title  "ARP request sent, vector"
vector 537  Topo.RTU2.networkLayer.arp  sentReq:vector  ETV
attr title  "ARP request sent, vector"
vector 558  Topo.RTU3.networkLayer.arp  sentReq:vector  ETV
attr title  "ARP request sent, vector"
vector 579  Topo.RTU4.networkLayer.arp  sentReq:vector  ETV
attr title  "ARP request sent, vector"
vector 44  Topo.s1.eth[0].encap  encapPk:vector(packetBytes)  ETV
attr interpolationmode  none
attr source  encapPk
attr title  "packets encapsulated, vector(packetBytes)"
vector 91  Topo.s2.eth[0].encap  encapPk:vector(packetBytes)  ETV
attr interpolationmode  none
attr source  encapPk
attr title  "packets encapsulated, vector(packetBytes)"
vector 138  Topo.s3.eth[0].encap  encapPk:vector(packetBytes)  ETV
attr interpolationmode  none
attr source  encapPk
attr title  "packets encapsulated, vector(packetBytes)"
vector 185  Topo.s4.eth[0].encap  encapPk:vector(packetBytes)  ETV
attr interpolationmode  none
attr source  encapPk
attr title  "packets encapsulated, vector(packetBytes)"
vector 232  Topo.s5.eth[0].encap  encapPk:vector(packetBytes)  ETV
attr interpolationmode  none
attr source  encapPk
attr title  "packets encapsulated, vector(packetBytes)"
vector 290  Topo.s6.eth[0].encap  encapPk:vector(packetBytes)  ETV
attr interpolationmode  none
attr source  encapPk
attr title  "packets encapsulated, vector(packetBytes)"
vector 348  Topo.s7.eth[0].encap  encapPk:vector(packetBytes)  ETV
attr interpolationmode  none
attr source  encapPk
attr title  "packets encapsulated, vector(packetBytes)"
vector 384  Topo.s8.eth[0].encap  encapPk:vector(packetBytes)  ETV
attr interpolationmode  none
attr source  encapPk
attr title  "packets encapsulated, vector(packetBytes)"
vector 530  Topo.RTU1.eth[0].encap  encapPk:vector(packetBytes)  ETV
attr interpolationmode  none
attr source  encapPk
attr title  "packets encapsulated, vector(packetBytes)"
vector 551  Topo.RTU2.eth[0].encap  encapPk:vector(packetBytes)  ETV
attr interpolationmode  none
attr source  encapPk
attr title  "packets encapsulated, vector(packetBytes)"
vector 572  Topo.RTU3.eth[0].encap  encapPk:vector(packetBytes)  ETV
attr interpolationmode  none
attr source  encapPk
attr title  "packets encapsulated, vector(packetBytes)"
vector 593  Topo.RTU4.eth[0].encap  encapPk:vector(packetBytes)  ETV
attr interpolationmode  none
attr source  encapPk
attr title  "packets encapsulated, vector(packetBytes)"
vector 40  Topo.s1.eth[0].mac  rxPkFromHL:vector(packetBytes)  ETV
attr interpolationmode  none
attr source  rxPkFromHL
attr title  "packet bytes from higher layer, vector(packetBytes)"
vector 87  Topo.s2.eth[0].mac  rxPkFromHL:vector(packetBytes)  ETV
attr interpolationmode  none
attr source  rxPkFromHL
attr title  "packet bytes from higher layer, vector(packetBytes)"
vector 134  Topo.s3.eth[0].mac  rxPkFromHL:vector(packetBytes)  ETV
attr interpolationmode  none
attr source  rxPkFromHL
attr title  "packet bytes from higher layer, vector(packetBytes)"
vector 181  Topo.s4.eth[0].mac  rxPkFromHL:vector(packetBytes)  ETV
attr interpolationmode  none
attr source  rxPkFromHL
attr title  "packet bytes from higher layer, vector(packetBytes)"
vector 228  Topo.s5.eth[0].mac  rxPkFromHL:vector(packetBytes)  ETV
attr interpolationmode  none
attr source  rxPkFromHL
attr title  "packet bytes from higher layer, vector(packetBytes)"
vector 286  Topo.s6.eth[0].mac  rxPkFromHL:vector(packetBytes)  ETV
attr interpolationmode  none
attr source  rxPkFromHL
attr title  "packet bytes from higher layer, vector(packetBytes)"
vector 344  Topo.s7.eth[0].mac  rxPkFromHL:vector(packetBytes)  ETV
attr interpolationmode  none
attr source  rxPkFromHL
attr title  "packet bytes from higher layer, vector(packetBytes)"
vector 380  Topo.s8.eth[0].mac  rxPkFromHL:vector(packetBytes)  ETV
attr interpolationmode  none
attr source  rxPkFromHL
attr title  "packet bytes from higher layer, vector(packetBytes)"
vector 526  Topo.RTU1.eth[0].mac  rxPkFromHL:vector(packetBytes)  ETV
attr interpolationmode  none
attr source  rxPkFromHL
attr title  "packet bytes from higher layer, vector(packetBytes)"
vector 547  Topo.RTU2.eth[0].mac  rxPkFromHL:vector(packetBytes)  ETV
attr interpolationmode  none
attr source  rxPkFromHL
attr title  "packet bytes from higher layer, vector(packetBytes)"
vector 568  Topo.RTU3.eth[0].mac  rxPkFromHL:vector(packetBytes)  ETV
attr interpolationmode  none
attr source  rxPkFromHL
attr title  "packet bytes from higher layer, vector(packetBytes)"
vector 589  Topo.RTU4.eth[0].mac  rxPkFromHL:vector(packetBytes)  ETV
attr interpolationmode  none
attr source  rxPkFromHL
attr title  "packet bytes from higher layer, vector(packetBytes)"
vector 35  Topo.s1.eth[0].mac  txPk:vector(packetBytes)  ETV
attr interpolationmode  none
attr source  txPk
attr title  "packets transmitted, vector(packetBytes)"
vector 82  Topo.s2.eth[0].mac  txPk:vector(packetBytes)  ETV
attr interpolationmode  none
attr source  txPk
attr title  "packets transmitted, vector(packetBytes)"
vector 129  Topo.s3.eth[0].mac  txPk:vector(packetBytes)  ETV
attr interpolationmode  none
attr source  txPk
attr title  "packets transmitted, vector(packetBytes)"
vector 176  Topo.s4.eth[0].mac  txPk:vector(packetBytes)  ETV
attr interpolationmode  none
attr source  txPk
attr title  "packets transmitted, vector(packetBytes)"
vector 223  Topo.s5.eth[0].mac  txPk:vector(packetBytes)  ETV
attr interpolationmode  none
attr source  txPk
attr title  "packets transmitted, vector(packetBytes)"
vector 281  Topo.s6.eth[0].mac  txPk:vector(packetBytes)  ETV
attr interpolationmode  none
attr source  txPk
attr title  "packets transmitted, vector(packetBytes)"
vector 339  Topo.s7.eth[0].mac  txPk:vector(packetBytes)  ETV
attr interpolationmode  none
attr source  txPk
attr title  "packets transmitted, vector(packetBytes)"
vector 375  Topo.s8.eth[0].mac  txPk:vector(packetBytes)  ETV
attr interpolationmode  none
attr source  txPk
attr title  "packets transmitted, vector(packetBytes)"
vector 521  Topo.RTU1.eth[0].mac  txPk:vector(packetBytes)  ETV
attr interpolationmode  none
attr source  txPk
attr title  "packets transmitted, vector(packetBytes)"
vector 542  Topo.RTU2.eth[0].mac  txPk:vector(packetBytes)  ETV
attr interpolationmode  none
attr source  txPk
attr title  "packets transmitted, vector(packetBytes)"
vector 563  Topo.RTU3.eth[0].mac  txPk:vector(packetBytes)  ETV
attr interpolationmode  none
attr source  txPk
attr title  "packets transmitted, vector(packetBytes)"
vector 584  Topo.RTU4.eth[0].mac  txPk:vector(packetBytes)  ETV
attr interpolationmode  none
attr source  txPk
attr title  "packets transmitted, vector(packetBytes)"
vector 393  Topo.controller.eth[0].mac  rxPkOk:vector(packetBytes)  ETV
attr interpolationmode  none
attr source  rxPkOk
attr title  "packets received OK, vector(packetBytes)"
vector 394  Topo.controller.eth[0].mac  passedUpPk:vector(packetBytes)  ETV
attr interpolationmode  none
attr source  packetSentToUpper
attr title  "packets passed to higher layer, vector(packetBytes)"
vector 405  Topo.controller.eth[1].mac  rxPkOk:vector(packetBytes)  ETV
attr interpolationmode  none
attr source  rxPkOk
attr title  "packets received OK, vector(packetBytes)"
vector 406  Topo.controller.eth[1].mac  passedUpPk:vector(packetBytes)  ETV
attr interpolationmode  none
attr source  packetSentToUpper
attr title  "packets passed to higher layer, vector(packetBytes)"
vector 417  Topo.controller.eth[2].mac  rxPkOk:vector(packetBytes)  ETV
attr interpolationmode  none
attr source  rxPkOk
attr title  "packets received OK, vector(packetBytes)"
vector 418  Topo.controller.eth[2].mac  passedUpPk:vector(packetBytes)  ETV
attr interpolationmode  none
attr source  packetSentToUpper
attr title  "packets passed to higher layer, vector(packetBytes)"
vector 429  Topo.controller.eth[3].mac  rxPkOk:vector(packetBytes)  ETV
attr interpolationmode  none
attr source  rxPkOk
attr title  "packets received OK, vector(packetBytes)"
vector 430  Topo.controller.eth[3].mac  passedUpPk:vector(packetBytes)  ETV
attr interpolationmode  none
attr source  packetSentToUpper
attr title  "packets passed to higher layer, vector(packetBytes)"
vector 441  Topo.controller.eth[4].mac  rxPkOk:vector(packetBytes)  ETV
attr interpolationmode  none
attr source  rxPkOk
attr title  "packets received OK, vector(packetBytes)"
vector 442  Topo.controller.eth[4].mac  passedUpPk:vector(packetBytes)  ETV
attr interpolationmode  none
attr source  packetSentToUpper
attr title  "packets passed to higher layer, vector(packetBytes)"
vector 453  Topo.controller.eth[5].mac  rxPkOk:vector(packetBytes)  ETV
attr interpolationmode  none
attr source  rxPkOk
attr title  "packets received OK, vector(packetBytes)"
vector 454  Topo.controller.eth[5].mac  passedUpPk:vector(packetBytes)  ETV
attr interpolationmode  none
attr source  packetSentToUpper
attr title  "packets passed to higher layer, vector(packetBytes)"
vector 465  Topo.controller.eth[6].mac  rxPkOk:vector(packetBytes)  ETV
attr interpolationmode  none
attr source  rxPkOk
attr title  "packets received OK, vector(packetBytes)"
vector 466  Topo.controller.eth[6].mac  passedUpPk:vector(packetBytes)  ETV
attr interpolationmode  none
attr source  packetSentToUpper
attr title  "packets passed to higher layer, vector(packetBytes)"
vector 477  Topo.controller.eth[7].mac  rxPkOk:vector(packetBytes)  ETV
attr interpolationmode  none
attr source  rxPkOk
attr title  "packets received OK, vector(packetBytes)"
vector 478  Topo.controller.eth[7].mac  passedUpPk:vector(packetBytes)  ETV
attr interpolationmode  none
attr source  packetSentToUpper
attr title  "packets passed to higher layer, vector(packetBytes)"
vector 236  Topo.s6.etherMAC[0]  rxPkOk:vector(packetBytes)  ETV
attr interpolationmode  none
attr source  rxPkOk
attr title  "packets received OK, vector(packetBytes)"
vector 237  Topo.s6.etherMAC[0]  passedUpPk:vector(packetBytes)  ETV
attr interpolationmode  none
attr source  packetSentToUpper
attr title  "packets passed to higher layer, vector(packetBytes)"
vector 247  Topo.s6.etherMAC[1]  rxPkOk:vector(packetBytes)  ETV
attr interpolationmode  none
attr source  rxPkOk
attr title  "packets received OK, vector(packetBytes)"
vector 248  Topo.s6.etherMAC[1]  passedUpPk:vector(packetBytes)  ETV
attr interpolationmode  none
attr source  packetSentToUpper
attr title  "packets passed to higher layer, vector(packetBytes)"
vector 294  Topo.s7.etherMAC[0]  rxPkOk:vector(packetBytes)  ETV
attr interpolationmode  none
attr source  rxPkOk
attr title  "packets received OK, vector(packetBytes)"
vector 295  Topo.s7.etherMAC[0]  passedUpPk:vector(packetBytes)  ETV
attr interpolationmode  none
attr source  packetSentToUpper
attr title  "packets passed to higher layer, vector(packetBytes)"
vector 305  Topo.s7.etherMAC[1]  rxPkOk:vector(packetBytes)  ETV
attr interpolationmode  none
attr source  rxPkOk
attr title  "packets received OK, vector(packetBytes)"
vector 306  Topo.s7.etherMAC[1]  passedUpPk:vector(packetBytes)  ETV
attr interpolationmode  none
attr source  packetSentToUpper
attr title  "packets passed to higher layer, vector(packetBytes)"
vector 402  Topo.controller.eth[0].encap  decapPk:vector(packetBytes)  ETV
attr interpolationmode  none
attr source  decapPk
attr title  "packets decapsulated, vector(packetBytes)"
vector 414  Topo.controller.eth[1].encap  decapPk:vector(packetBytes)  ETV
attr interpolationmode  none
attr source  decapPk
attr title  "packets decapsulated, vector(packetBytes)"
vector 426  Topo.controller.eth[2].encap  decapPk:vector(packetBytes)  ETV
attr interpolationmode  none
attr source  decapPk
attr title  "packets decapsulated, vector(packetBytes)"
vector 438  Topo.controller.eth[3].encap  decapPk:vector(packetBytes)  ETV
attr interpolationmode  none
attr source  decapPk
attr title  "packets decapsulated, vector(packetBytes)"
vector 450  Topo.controller.eth[4].encap  decapPk:vector(packetBytes)  ETV
attr interpolationmode  none
attr source  decapPk
attr title  "packets decapsulated, vector(packetBytes)"
vector 462  Topo.controller.eth[5].encap  decapPk:vector(packetBytes)  ETV
attr interpolationmode  none
attr source  decapPk
attr title  "packets decapsulated, vector(packetBytes)"
vector 474  Topo.controller.eth[6].encap  decapPk:vector(packetBytes)  ETV
attr interpolationmode  none
attr source  decapPk
attr title  "packets decapsulated, vector(packetBytes)"
vector 486  Topo.controller.eth[7].encap  decapPk:vector(packetBytes)  ETV
attr interpolationmode  none
attr source  decapPk
attr title  "packets decapsulated, vector(packetBytes)"
vector 388  Topo.controller.networkLayer.arp  sentReply:vector  ETV
attr title  "ARP replies sent, vector"
vector 401  Topo.controller.eth[0].encap  encapPk:vector(packetBytes)  ETV
attr interpolationmode  none
attr source  encapPk
attr title  "packets encapsulated, vector(packetBytes)"
vector 413  Topo.controller.eth[1].encap  encapPk:vector(packetBytes)  ETV
attr interpolationmode  none
attr source  encapPk
attr title  "packets encapsulated, vector(packetBytes)"
vector 425  Topo.controller.eth[2].encap  encapPk:vector(packetBytes)  ETV
attr interpolationmode  none
attr source  encapPk
attr title  "packets encapsulated, vector(packetBytes)"
vector 437  Topo.controller.eth[3].encap  encapPk:vector(packetBytes)  ETV
attr interpolationmode  none
attr source  encapPk
attr title  "packets encapsulated, vector(packetBytes)"
vector 449  Topo.controller.eth[4].encap  encapPk:vector(packetBytes)  ETV
attr interpolationmode  none
attr source  encapPk
attr title  "packets encapsulated, vector(packetBytes)"
vector 461  Topo.controller.eth[5].encap  encapPk:vector(packetBytes)  ETV
attr interpolationmode  none
attr source  encapPk
attr title  "packets encapsulated, vector(packetBytes)"
vector 473  Topo.controller.eth[6].encap  encapPk:vector(packetBytes)  ETV
attr interpolationmode  none
attr source  encapPk
attr title  "packets encapsulated, vector(packetBytes)"
vector 485  Topo.controller.eth[7].encap  encapPk:vector(packetBytes)  ETV
attr interpolationmode  none
attr source  encapPk
attr title  "packets encapsulated, vector(packetBytes)"
vector 397  Topo.controller.eth[0].mac  rxPkFromHL:vector(packetBytes)  ETV
attr interpolationmode  none
attr source  rxPkFromHL
attr title  "packet bytes from higher layer, vector(packetBytes)"
vector 409  Topo.controller.eth[1].mac  rxPkFromHL:vector(packetBytes)  ETV
attr interpolationmode  none
attr source  rxPkFromHL
attr title  "packet bytes from higher layer, vector(packetBytes)"
vector 421  Topo.controller.eth[2].mac  rxPkFromHL:vector(packetBytes)  ETV
attr interpolationmode  none
attr source  rxPkFromHL
attr title  "packet bytes from higher layer, vector(packetBytes)"
vector 433  Topo.controller.eth[3].mac  rxPkFromHL:vector(packetBytes)  ETV
attr interpolationmode  none
attr source  rxPkFromHL
attr title  "packet bytes from higher layer, vector(packetBytes)"
vector 445  Topo.controller.eth[4].mac  rxPkFromHL:vector(packetBytes)  ETV
attr interpolationmode  none
attr source  rxPkFromHL
attr title  "packet bytes from higher layer, vector(packetBytes)"
vector 457  Topo.controller.eth[5].mac  rxPkFromHL:vector(packetBytes)  ETV
attr interpolationmode  none
attr source  rxPkFromHL
attr title  "packet bytes from higher layer, vector(packetBytes)"
vector 469  Topo.controller.eth[6].mac  rxPkFromHL:vector(packetBytes)  ETV
attr interpolationmode  none
attr source  rxPkFromHL
attr title  "packet bytes from higher layer, vector(packetBytes)"
vector 481  Topo.controller.eth[7].mac  rxPkFromHL:vector(packetBytes)  ETV
attr interpolationmode  none
attr source  rxPkFromHL
attr title  "packet bytes from higher layer, vector(packetBytes)"
vector 392  Topo.controller.eth[0].mac  txPk:vector(packetBytes)  ETV
attr interpolationmode  none
attr source  txPk
attr title  "packets transmitted, vector(packetBytes)"
vector 404  Topo.controller.eth[1].mac  txPk:vector(packetBytes)  ETV
attr interpolationmode  none
attr source  txPk
attr title  "packets transmitted, vector(packetBytes)"
vector 416  Topo.controller.eth[2].mac  txPk:vector(packetBytes)  ETV
attr interpolationmode  none
attr source  txPk
attr title  "packets transmitted, vector(packetBytes)"
vector 428  Topo.controller.eth[3].mac  txPk:vector(packetBytes)  ETV
attr interpolationmode  none
attr source  txPk
attr title  "packets transmitted, vector(packetBytes)"
vector 440  Topo.controller.eth[4].mac  txPk:vector(packetBytes)  ETV
attr interpolationmode  none
attr source  txPk
attr title  "packets transmitted, vector(packetBytes)"
vector 452  Topo.controller.eth[5].mac  txPk:vector(packetBytes)  ETV
attr interpolationmode  none
attr source  txPk
attr title  "packets transmitted, vector(packetBytes)"
vector 464  Topo.controller.eth[6].mac  txPk:vector(packetBytes)  ETV
attr interpolationmode  none
attr source  txPk
attr title  "packets transmitted, vector(packetBytes)"
vector 476  Topo.controller.eth[7].mac  txPk:vector(packetBytes)  ETV
attr interpolationmode  none
attr source  txPk
attr title  "packets transmitted, vector(packetBytes)"
vector 36  Topo.s1.eth[0].mac  rxPkOk:vector(packetBytes)  ETV
attr interpolationmode  none
attr source  rxPkOk
attr title  "packets received OK, vector(packetBytes)"
vector 37  Topo.s1.eth[0].mac  passedUpPk:vector(packetBytes)  ETV
attr interpolationmode  none
attr source  packetSentToUpper
attr title  "packets passed to higher layer, vector(packetBytes)"
vector 83  Topo.s2.eth[0].mac  rxPkOk:vector(packetBytes)  ETV
attr interpolationmode  none
attr source  rxPkOk
attr title  "packets received OK, vector(packetBytes)"
vector 84  Topo.s2.eth[0].mac  passedUpPk:vector(packetBytes)  ETV
attr interpolationmode  none
attr source  packetSentToUpper
attr title  "packets passed to higher layer, vector(packetBytes)"
vector 130  Topo.s3.eth[0].mac  rxPkOk:vector(packetBytes)  ETV
attr interpolationmode  none
attr source  rxPkOk
attr title  "packets received OK, vector(packetBytes)"
vector 131  Topo.s3.eth[0].mac  passedUpPk:vector(packetBytes)  ETV
attr interpolationmode  none
attr source  packetSentToUpper
attr title  "packets passed to higher layer, vector(packetBytes)"
vector 177  Topo.s4.eth[0].mac  rxPkOk:vector(packetBytes)  ETV
attr interpolationmode  none
attr source  rxPkOk
attr title  "packets received OK, vector(packetBytes)"
vector 178  Topo.s4.eth[0].mac  passedUpPk:vector(packetBytes)  ETV
attr interpolationmode  none
attr source  packetSentToUpper
attr title  "packets passed to higher layer, vector(packetBytes)"
vector 224  Topo.s5.eth[0].mac  rxPkOk:vector(packetBytes)  ETV
attr interpolationmode  none
attr source  rxPkOk
attr title  "packets received OK, vector(packetBytes)"
vector 225  Topo.s5.eth[0].mac  passedUpPk:vector(packetBytes)  ETV
attr interpolationmode  none
attr source  packetSentToUpper
attr title  "packets passed to higher layer, vector(packetBytes)"
vector 282  Topo.s6.eth[0].mac  rxPkOk:vector(packetBytes)  ETV
attr interpolationmode  none
attr source  rxPkOk
attr title  "packets received OK, vector(packetBytes)"
vector 283  Topo.s6.eth[0].mac  passedUpPk:vector(packetBytes)  ETV
attr interpolationmode  none
attr source  packetSentToUpper
attr title  "packets passed to higher layer, vector(packetBytes)"
vector 340  Topo.s7.eth[0].mac  rxPkOk:vector(packetBytes)  ETV
attr interpolationmode  none
attr source  rxPkOk
attr title  "packets received OK, vector(packetBytes)"
vector 341  Topo.s7.eth[0].mac  passedUpPk:vector(packetBytes)  ETV
attr interpolationmode  none
attr source  packetSentToUpper
attr title  "packets passed to higher layer, vector(packetBytes)"
vector 376  Topo.s8.eth[0].mac  rxPkOk:vector(packetBytes)  ETV
attr interpolationmode  none
attr source  rxPkOk
attr title  "packets received OK, vector(packetBytes)"
vector 377  Topo.s8.eth[0].mac  passedUpPk:vector(packetBytes)  ETV
attr interpolationmode  none
attr source  packetSentToUpper
attr title  "packets passed to higher layer, vector(packetBytes)"
vector 45  Topo.s1.eth[0].encap  decapPk:vector(packetBytes)  ETV
attr interpolationmode  none
attr source  decapPk
attr title  "packets decapsulated, vector(packetBytes)"
vector 92  Topo.s2.eth[0].encap  decapPk:vector(packetBytes)  ETV
attr interpolationmode  none
attr source  decapPk
attr title  "packets decapsulated, vector(packetBytes)"
vector 139  Topo.s3.eth[0].encap  decapPk:vector(packetBytes)  ETV
attr interpolationmode  none
attr source  decapPk
attr title  "packets decapsulated, vector(packetBytes)"
vector 186  Topo.s4.eth[0].encap  decapPk:vector(packetBytes)  ETV
attr interpolationmode  none
attr source  decapPk
attr title  "packets decapsulated, vector(packetBytes)"
vector 233  Topo.s5.eth[0].encap  decapPk:vector(packetBytes)  ETV
attr interpolationmode  none
attr source  decapPk
attr title  "packets decapsulated, vector(packetBytes)"
vector 291  Topo.s6.eth[0].encap  decapPk:vector(packetBytes)  ETV
attr interpolationmode  none
attr source  decapPk
attr title  "packets decapsulated, vector(packetBytes)"
vector 349  Topo.s7.eth[0].encap  decapPk:vector(packetBytes)  ETV
attr interpolationmode  none
attr source  decapPk
attr title  "packets decapsulated, vector(packetBytes)"
vector 385  Topo.s8.eth[0].encap  decapPk:vector(packetBytes)  ETV
attr interpolationmode  none
attr source  decapPk
attr title  "packets decapsulated, vector(packetBytes)"
vector 601  Topo.controller.tcp  "rcvd seq"  ETV
vector 602  Topo.controller.tcp  "rcvd ack"  ETV
vector 598  Topo.controller.tcp  "advertised window"  ETV
vector 596  Topo.controller.tcp  "send window"  ETV
vector 611  Topo.controller.tcp  tcpRcvQueueBytes  ETV
vector 597  Topo.controller.tcp  "receive window"  ETV
vector 600  Topo.controller.tcp  "sent ack"  ETV
vector 937  Topo.controller.tcp  "rcvd seq"  ETV
vector 938  Topo.controller.tcp  "rcvd ack"  ETV
vector 934  Topo.controller.tcp  "advertised window"  ETV
vector 932  Topo.controller.tcp  "send window"  ETV
vector 947  Topo.controller.tcp  tcpRcvQueueBytes  ETV
vector 933  Topo.controller.tcp  "receive window"  ETV
vector 936  Topo.controller.tcp  "sent ack"  ETV
vector 961  Topo.controller.tcp  "rcvd seq"  ETV
vector 962  Topo.controller.tcp  "rcvd ack"  ETV
vector 958  Topo.controller.tcp  "advertised window"  ETV
vector 956  Topo.controller.tcp  "send window"  ETV
vector 971  Topo.controller.tcp  tcpRcvQueueBytes  ETV
vector 957  Topo.controller.tcp  "receive window"  ETV
vector 960  Topo.controller.tcp  "sent ack"  ETV
vector 985  Topo.controller.tcp  "rcvd seq"  ETV
vector 986  Topo.controller.tcp  "rcvd ack"  ETV
vector 982  Topo.controller.tcp  "advertised window"  ETV
vector 980  Topo.controller.tcp  "send window"  ETV
vector 995  Topo.controller.tcp  tcpRcvQueueBytes  ETV
vector 981  Topo.controller.tcp  "receive window"  ETV
vector 984  Topo.controller.tcp  "sent ack"  ETV
vector 1009  Topo.controller.tcp  "rcvd seq"  ETV
vector 1010  Topo.controller.tcp  "rcvd ack"  ETV
vector 1006  Topo.controller.tcp  "advertised window"  ETV
vector 1004  Topo.controller.tcp  "send window"  ETV
vector 1019  Topo.controller.tcp  tcpRcvQueueBytes  ETV
vector 1005  Topo.controller.tcp  "receive window"  ETV
vector 1008  Topo.controller.tcp  "sent ack"  ETV
vector 1033  Topo.controller.tcp  "rcvd seq"  ETV
vector 1034  Topo.controller.tcp  "rcvd ack"  ETV
vector 1030  Topo.controller.tcp  "advertised window"  ETV
vector 1028  Topo.controller.tcp  "send window"  ETV
vector 1043  Topo.controller.tcp  tcpRcvQueueBytes  ETV
vector 1029  Topo.controller.tcp  "receive window"  ETV
vector 1032  Topo.controller.tcp  "sent ack"  ETV
vector 1057  Topo.controller.tcp  "rcvd seq"  ETV
vector 1058  Topo.controller.tcp  "rcvd ack"  ETV
vector 1054  Topo.controller.tcp  "advertised window"  ETV
vector 1052  Topo.controller.tcp  "send window"  ETV
vector 1067  Topo.controller.tcp  tcpRcvQueueBytes  ETV
vector 1053  Topo.controller.tcp  "receive window"  ETV
vector 1056  Topo.controller.tcp  "sent ack"  ETV
vector 1081  Topo.controller.tcp  "rcvd seq"  ETV
vector 1082  Topo.controller.tcp  "rcvd ack"  ETV
vector 1078  Topo.controller.tcp  "advertised window"  ETV
vector 1076  Topo.controller.tcp  "send window"  ETV
vector 1091  Topo.controller.tcp  tcpRcvQueueBytes  ETV
vector 1077  Topo.controller.tcp  "receive window"  ETV
vector 1080  Topo.controller.tcp  "sent ack"  ETV
vector 649  Topo.s1.tcp  "rcvd seq"  ETV
vector 650  Topo.s1.tcp  "rcvd ack"  ETV
vector 644  Topo.s1.tcp  "send window"  ETV
vector 673  Topo.s2.tcp  "rcvd seq"  ETV
vector 674  Topo.s2.tcp  "rcvd ack"  ETV
vector 668  Topo.s2.tcp  "send window"  ETV
vector 697  Topo.s3.tcp  "rcvd seq"  ETV
vector 698  Topo.s3.tcp  "rcvd ack"  ETV
vector 692  Topo.s3.tcp  "send window"  ETV
vector 721  Topo.s4.tcp  "rcvd seq"  ETV
vector 722  Topo.s4.tcp  "rcvd ack"  ETV
vector 716  Topo.s4.tcp  "send window"  ETV
vector 745  Topo.s5.tcp  "rcvd seq"  ETV
vector 746  Topo.s5.tcp  "rcvd ack"  ETV
vector 740  Topo.s5.tcp  "send window"  ETV
vector 769  Topo.s6.tcp  "rcvd seq"  ETV
vector 770  Topo.s6.tcp  "rcvd ack"  ETV
vector 764  Topo.s6.tcp  "send window"  ETV
vector 767  Topo.s6.tcp  "sent seq"  ETV
vector 771  Topo.s6.tcp  "unacked bytes"  ETV
vector 793  Topo.s7.tcp  "rcvd seq"  ETV
vector 794  Topo.s7.tcp  "rcvd ack"  ETV
vector 788  Topo.s7.tcp  "send window"  ETV
vector 791  Topo.s7.tcp  "sent seq"  ETV
vector 795  Topo.s7.tcp  "unacked bytes"  ETV
vector 817  Topo.s8.tcp  "rcvd seq"  ETV
vector 818  Topo.s8.tcp  "rcvd ack"  ETV
vector 812  Topo.s8.tcp  "send window"  ETV
vector 603  Topo.controller.tcp  "unacked bytes"  ETV
vector 939  Topo.controller.tcp  "unacked bytes"  ETV
vector 963  Topo.controller.tcp  "unacked bytes"  ETV
vector 987  Topo.controller.tcp  "unacked bytes"  ETV
vector 1011  Topo.controller.tcp  "unacked bytes"  ETV
vector 1083  Topo.controller.tcp  "unacked bytes"  ETV
vector 599  Topo.controller.tcp  "sent seq"  ETV
vector 935  Topo.controller.tcp  "sent seq"  ETV
vector 959  Topo.controller.tcp  "sent seq"  ETV
vector 983  Topo.controller.tcp  "sent seq"  ETV
vector 1007  Topo.controller.tcp  "sent seq"  ETV
vector 1079  Topo.controller.tcp  "sent seq"  ETV
vector 1035  Topo.controller.tcp  "unacked bytes"  ETV
vector 1045  Topo.controller.tcp  cwnd  ETV
vector 1036  Topo.controller.tcp  "rcvd dupAcks"  ETV
vector 1059  Topo.controller.tcp  "unacked bytes"  ETV
vector 1069  Topo.controller.tcp  cwnd  ETV
vector 1060  Topo.controller.tcp  "rcvd dupAcks"  ETV
vector 1031  Topo.controller.tcp  "sent seq"  ETV